DF-ISE text

Info {
  version   = 1.0
  type      = xyplot
  datasets  = [
    "time"
    "source OuterVoltage" "source InnerVoltage" "source QuasiFermiPotential" "source DisplacementCurrent" "source eCurrent"
    "source hCurrent" "source TotalCurrent" "source Charge" "drain OuterVoltage" "drain InnerVoltage"
    "drain QuasiFermiPotential" "drain DisplacementCurrent" "drain eCurrent" "drain hCurrent" "drain TotalCurrent"
    "drain Charge" "gate OuterVoltage" "gate InnerVoltage" "gate QuasiFermiPotential" "gate DisplacementCurrent"
    "gate eCurrent" "gate hCurrent" "gate TotalCurrent" "gate Charge" "substrate OuterVoltage"
    "substrate InnerVoltage" "substrate QuasiFermiPotential" "substrate DisplacementCurrent" "substrate eCurrent" "substrate hCurrent"
    "substrate TotalCurrent" "substrate Charge" ]
  functions = [
    Time
    OuterVoltage InnerVoltage QuasiFermiPotential DisplacementCurrent eCurrent
    hCurrent TotalCurrent Charge OuterVoltage InnerVoltage
    QuasiFermiPotential DisplacementCurrent eCurrent hCurrent TotalCurrent
    Charge OuterVoltage InnerVoltage QuasiFermiPotential DisplacementCurrent
    eCurrent hCurrent TotalCurrent Charge OuterVoltage
    InnerVoltage QuasiFermiPotential DisplacementCurrent eCurrent hCurrent
    TotalCurrent Charge ]
}

Data {
      0.00000000000000E+00
      0.00000000000000E+00   0.00000000000000E+00   0.00000000000000E+00   0.00000000000000E+00  -3.45854954556390E-05
      0.00000000000000E+00  -3.45854954556390E-05   3.06665553171943E-17   2.00000000000000E+00   2.00000000000000E+00
      0.00000000000000E+00   0.00000000000000E+00   3.45854954645357E-05   0.00000000000000E+00   3.45854954645357E-05
      6.40395506319672E-16   0.00000000000000E+00   0.00000000000000E+00   0.00000000000000E+00   0.00000000000000E+00
     -8.16872250284137E-36   8.16872250284137E-36   0.00000000000000E+00  -2.69911319117211E-16   0.00000000000000E+00
      0.00000000000000E+00   0.00000000000000E+00   0.00000000000000E+00  -2.35651666834244E-15  -6.47683538273750E-17
     -2.42128502216981E-15  -4.16860002321645E-16
      1.00000000000000E-02
      0.00000000000000E+00   0.00000000000000E+00   0.00000000000000E+00   0.00000000000000E+00  -3.61420482524479E-05
      0.00000000000000E+00  -3.61420482524479E-05   2.80448446675378E-17   2.00000000000000E+00   2.00000000000000E+00
      0.00000000000000E+00   0.00000000000000E+00   3.61420482428098E-05   0.00000000000000E+00   3.61420482428098E-05
      6.38281485855930E-16   2.00000000000000E-02   2.00000000000000E-02   0.00000000000000E+00   0.00000000000000E+00
      1.18965429221833E-32  -1.18965429221833E-32   0.00000000000000E+00  -2.59477361932761E-16   0.00000000000000E+00
      0.00000000000000E+00   0.00000000000000E+00   0.00000000000000E+00  -2.35657117785161E-15  -6.47914053622277E-17
     -2.42136258321384E-15  -4.22266350824552E-16
      2.44666666666667E-02
      0.00000000000000E+00   0.00000000000000E+00   0.00000000000000E+00   0.00000000000000E+00  -3.84577863277152E-05
      0.00000000000000E+00  -3.84577863277152E-05   2.42658162181654E-17   2.00000000000000E+00   2.00000000000000E+00
      0.00000000000000E+00   0.00000000000000E+00   3.84577863204907E-05   0.00000000000000E+00   3.84577863204907E-05
      6.35230510647665E-16   4.89333333333333E-02   4.89333333333333E-02   0.00000000000000E+00   0.00000000000000E+00
     -6.64854659007879E-27   6.64854659007879E-27   0.00000000000000E+00  -2.44206674230309E-16   0.00000000000000E+00
      0.00000000000000E+00   0.00000000000000E+00   0.00000000000000E+00   1.05315800973446E-14  -6.48256824798484E-17
      1.04667544148647E-14  -4.30284861668443E-16
      4.53951111111111E-02
      0.00000000000000E+00   0.00000000000000E+00   0.00000000000000E+00   0.00000000000000E+00  -4.19297755691006E-05
      0.00000000000000E+00  -4.19297755691006E-05   1.88256321808071E-17   2.00000000000000E+00   2.00000000000000E+00
      0.00000000000000E+00   0.00000000000000E+00   4.19297755700871E-05   0.00000000000000E+00   4.19297755700871E-05
      6.30823445162982E-16   9.07902222222222E-02   9.07902222222222E-02   0.00000000000000E+00   0.00000000000000E+00
     -1.18418045127622E-35   1.18418045127622E-35   0.00000000000000E+00  -2.21767426454083E-16   0.00000000000000E+00
      0.00000000000000E+00   0.00000000000000E+00   0.00000000000000E+00  -2.35859350499067E-15  -6.48772649955128E-17
     -2.42347076998618E-15  -4.42266273248857E-16
      7.53925481481482E-02
      0.00000000000000E+00   0.00000000000000E+00   0.00000000000000E+00   0.00000000000000E+00  -4.71275484807198E-05
      0.00000000000000E+00  -4.71275484807198E-05   1.10794059516957E-17   2.00000000000000E+00   2.00000000000000E+00
      0.00000000000000E+00   0.00000000000000E+00   4.71275484855643E-05   0.00000000000000E+00   4.71275484855643E-05
      6.24504151384181E-16   1.50785096296296E-01   1.50785096296296E-01   0.00000000000000E+00   0.00000000000000E+00
      6.31768767133810E-30  -6.31768767133810E-30   0.00000000000000E+00  -1.88945610942742E-16   0.00000000000000E+00
      0.00000000000000E+00   0.00000000000000E+00   0.00000000000000E+00  -7.34027217488046E-15  -6.49549677333628E-17
     -7.40522714261382E-15  -4.60147710957105E-16
      1.18788840395062E-01
      0.00000000000000E+00   0.00000000000000E+00   0.00000000000000E+00   0.00000000000000E+00  -5.50320474610539E-05
      0.00000000000000E+00  -5.50320474610539E-05  -2.83547614033764E-20   2.00000000000000E+00   2.00000000000000E+00
      0.00000000000000E+00   0.00000000000000E+00   5.50320474640271E-05   0.00000000000000E+00   5.50320474640271E-05
      6.15325099844567E-16   2.37577680790124E-01   2.37577680790124E-01   0.00000000000000E+00   0.00000000000000E+00
     -8.76176713217331E-36   8.76176713217331E-36   0.00000000000000E+00  -1.40262905205243E-16   0.00000000000000E+00
      0.00000000000000E+00   0.00000000000000E+00   0.00000000000000E+00  -1.93377344447617E-15  -6.50741678996104E-17
     -1.99884761237578E-15  -4.87278619820522E-16
      1.80990192615638E-01
      0.00000000000000E+00   0.00000000000000E+00   0.00000000000000E+00   0.00000000000000E+00  -6.69703607372902E-05
      0.00000000000000E+00  -6.69703607372902E-05  -1.57599542339253E-17   2.00000000000000E+00   2.00000000000000E+00
      0.00000000000000E+00   0.00000000000000E+00   6.69703607524601E-05   0.00000000000000E+00   6.69703607524601E-05
      6.02052183637323E-16   3.61980385231276E-01   3.61980385231276E-01   0.00000000000000E+00   0.00000000000000E+00
     -9.00654068459848E-36   9.00654068459848E-36   0.00000000000000E+00  -6.84500662092119E-17   0.00000000000000E+00
      0.00000000000000E+00   0.00000000000000E+00   0.00000000000000E+00  -2.36420884573427E-15  -6.52547079918286E-17
     -2.42946355372609E-15  -5.28275079449478E-16
      2.69316112768856E-01
      0.00000000000000E+00   0.00000000000000E+00   0.00000000000000E+00   0.00000000000000E+00  -8.47864780739551E-05
      0.00000000000000E+00  -8.47864780739551E-05  -3.77367469449004E-17   2.00000000000000E+00   2.00000000000000E+00
      0.00000000000000E+00   0.00000000000000E+00   8.47864780680140E-05   0.00000000000000E+00   8.47864780680140E-05
      5.82964223185056E-16   5.38632225537712E-01   5.38632225537712E-01   0.00000000000000E+00   0.00000000000000E+00
     -8.77853598738820E-36   8.77853598738820E-36   0.00000000000000E+00   3.66722307979630E-17   0.00000000000000E+00
      0.00000000000000E+00   0.00000000000000E+00   0.00000000000000E+00  -2.36824313065086E-15  -6.55193899255981E-17
     -2.43376252057646E-15  -5.89762262653920E-16
      3.69316112768856E-01
      0.00000000000000E+00   0.00000000000000E+00   0.00000000000000E+00   0.00000000000000E+00  -1.05776961459565E-04
      0.00000000000000E+00  -1.05776961459565E-04  -6.21398735956058E-17   2.00000000000000E+00   2.00000000000000E+00
      0.00000000000000E+00   0.00000000000000E+00   1.05776961458119E-04   0.00000000000000E+00   1.05776961458119E-04
      5.61077467206213E-16   7.38632225537712E-01   7.38632225537712E-01   0.00000000000000E+00   0.00000000000000E+00
     -8.85284808133115E-36   8.85284808133115E-36   0.00000000000000E+00   1.58941001482739E-16   0.00000000000000E+00
      0.00000000000000E+00   0.00000000000000E+00   0.00000000000000E+00  -2.38156644092792E-15  -6.58170002955581E-17
     -2.44738344122348E-15  -6.62834430393384E-16
      4.69316112768856E-01
      0.00000000000000E+00   0.00000000000000E+00   0.00000000000000E+00   0.00000000000000E+00  -1.27356613408956E-04
      0.00000000000000E+00  -1.27356613408956E-04  -8.60832533635185E-17   2.00000000000000E+00   2.00000000000000E+00
      0.00000000000000E+00   0.00000000000000E+00   1.27356613414561E-04   0.00000000000000E+00   1.27356613414561E-04
      5.38983518904281E-16   9.38632225537712E-01   9.38632225537712E-01   0.00000000000000E+00   0.00000000000000E+00
     -8.75722059757408E-36   8.75722059757408E-36   0.00000000000000E+00   2.83708144070736E-16   0.00000000000000E+00
      0.00000000000000E+00   0.00000000000000E+00   0.00000000000000E+00  -2.37565619572952E-15  -6.61040426076602E-17
     -2.44176023833718E-15  -7.38660941547408E-16
      5.69316112768856E-01
      0.00000000000000E+00   0.00000000000000E+00   0.00000000000000E+00   0.00000000000000E+00  -1.49354839078562E-04
      0.00000000000000E+00  -1.49354839078562E-04  -1.09620267157309E-16   2.00000000000000E+00   2.00000000000000E+00
      0.00000000000000E+00   0.00000000000000E+00   1.49354839083447E-04   0.00000000000000E+00   1.49354839083447E-04
      5.16769658949617E-16   1.13863222553771E+00   1.13863222553771E+00   0.00000000000000E+00   0.00000000000000E+00
     -8.70672445191901E-36   8.70672445191901E-36   0.00000000000000E+00   4.10347984815162E-16   0.00000000000000E+00
      0.00000000000000E+00   0.00000000000000E+00   0.00000000000000E+00  -2.39187306167947E-15  -6.63769394875477E-17
     -2.45825000116702E-15  -8.16649879465644E-16
      6.69316112768856E-01
      0.00000000000000E+00   0.00000000000000E+00   0.00000000000000E+00   0.00000000000000E+00  -1.71669820657100E-04
      0.00000000000000E+00  -1.71669820657100E-04  -1.32803714378566E-16   2.00000000000000E+00   2.00000000000000E+00
      0.00000000000000E+00   0.00000000000000E+00   1.71669820659959E-04   0.00000000000000E+00   1.71669820659959E-04
      4.94498648499585E-16   1.33863222553771E+00   1.33863222553771E+00   0.00000000000000E+00   0.00000000000000E+00
     -8.67628589189559E-36   8.67628589189559E-36   0.00000000000000E+00   5.38426927670139E-16   0.00000000000000E+00
      0.00000000000000E+00   0.00000000000000E+00   0.00000000000000E+00  -2.41104635670692E-15  -6.66353658228029E-17
     -2.47768172252973E-15  -8.96377488566973E-16
      7.69316112768856E-01
      0.00000000000000E+00   0.00000000000000E+00   0.00000000000000E+00   0.00000000000000E+00  -1.94231915676653E-04
      0.00000000000000E+00  -1.94231915676653E-04  -1.55680332879127E-16   2.00000000000000E+00   2.00000000000000E+00
      0.00000000000000E+00   0.00000000000000E+00   1.94231915676061E-04   0.00000000000000E+00   1.94231915676061E-04
      4.72211872721731E-16   1.53863222553771E+00   1.53863222553771E+00   0.00000000000000E+00   0.00000000000000E+00
     -8.82378066148376E-36   8.82378066148376E-36   0.00000000000000E+00   6.67645752369208E-16   0.00000000000000E+00
      0.00000000000000E+00   0.00000000000000E+00   0.00000000000000E+00  -2.38800411625906E-15  -6.68798748581467E-17
     -2.45488399111721E-15  -9.77539093672571E-16
      8.69316112768856E-01
      0.00000000000000E+00   0.00000000000000E+00   0.00000000000000E+00   0.00000000000000E+00  -2.16994419779572E-04
      0.00000000000000E+00  -2.16994419779572E-04  -1.78291245284533E-16   2.00000000000000E+00   2.00000000000000E+00
      0.00000000000000E+00   0.00000000000000E+00   2.16994419783241E-04   0.00000000000000E+00   2.16994419783241E-04
      4.49924300454883E-16   1.73863222553771E+00   1.73863222553771E+00   0.00000000000000E+00   0.00000000000000E+00
     -8.74215231302146E-36   8.74215231302146E-36   0.00000000000000E+00   7.97772809004801E-16   0.00000000000000E+00
      0.00000000000000E+00   0.00000000000000E+00   0.00000000000000E+00  -2.39483485492189E-15  -6.71117670014455E-17
     -2.46194662192334E-15  -1.05987680804793E-15
      9.69316112768856E-01
      0.00000000000000E+00   0.00000000000000E+00   0.00000000000000E+00   0.00000000000000E+00  -2.39916638305497E-04
      0.00000000000000E+00  -2.39916638305497E-04  -2.00669729637720E-16   2.00000000000000E+00   2.00000000000000E+00
      0.00000000000000E+00   0.00000000000000E+00   2.39916638309418E-04   0.00000000000000E+00   2.39916638309418E-04
      4.27681113328695E-16   1.93863222553771E+00   1.93863222553771E+00   0.00000000000000E+00   0.00000000000000E+00
     -8.86264763725855E-36   8.86264763725855E-36   0.00000000000000E+00   9.28668230465072E-16   0.00000000000000E+00
      0.00000000000000E+00   0.00000000000000E+00   0.00000000000000E+00  -2.41105962886754E-15  -6.73317863128248E-17
     -2.47839141518036E-15  -1.14326262205488E-15
      1.00000000000000E+00
      0.00000000000000E+00   0.00000000000000E+00   0.00000000000000E+00   0.00000000000000E+00  -2.46977874877953E-04
      0.00000000000000E+00  -2.46977874877953E-04  -2.07494401146324E-16   2.00000000000000E+00   2.00000000000000E+00
      0.00000000000000E+00   0.00000000000000E+00   2.46977874880808E-04   0.00000000000000E+00   2.46977874880808E-04
      4.20863845945772E-16   2.00000000000000E+00   2.00000000000000E+00   0.00000000000000E+00   0.00000000000000E+00
     -6.19213510986692E-36   6.19213510986692E-36   0.00000000000000E+00   9.68962492855412E-16   0.00000000000000E+00
      0.00000000000000E+00   0.00000000000000E+00   0.00000000000000E+00  -2.42132608750807E-15  -6.73971391945865E-17
     -2.48872322670265E-15  -1.16902939022628E-15
}
