DF-ISE text

Info {
  version   = 1.0
  type      = xyplot
  datasets  = [
    "time"
    "source OuterVoltage" "source InnerVoltage" "source QuasiFermiPotential" "source DisplacementCurrent" "source eCurrent"
    "source hCurrent" "source TotalCurrent" "source Charge" "drain OuterVoltage" "drain InnerVoltage"
    "drain QuasiFermiPotential" "drain DisplacementCurrent" "drain eCurrent" "drain hCurrent" "drain TotalCurrent"
    "drain Charge" "gate OuterVoltage" "gate InnerVoltage" "gate QuasiFermiPotential" "gate DisplacementCurrent"
    "gate eCurrent" "gate hCurrent" "gate TotalCurrent" "gate Charge" "substrate OuterVoltage"
    "substrate InnerVoltage" "substrate QuasiFermiPotential" "substrate DisplacementCurrent" "substrate eCurrent" "substrate hCurrent"
    "substrate TotalCurrent" "substrate Charge" ]
  functions = [
    Time
    OuterVoltage InnerVoltage QuasiFermiPotential DisplacementCurrent eCurrent
    hCurrent TotalCurrent Charge OuterVoltage InnerVoltage
    QuasiFermiPotential DisplacementCurrent eCurrent hCurrent TotalCurrent
    Charge OuterVoltage InnerVoltage QuasiFermiPotential DisplacementCurrent
    eCurrent hCurrent TotalCurrent Charge OuterVoltage
    InnerVoltage QuasiFermiPotential DisplacementCurrent eCurrent hCurrent
    TotalCurrent Charge ]
}

Data {
      0.00000000000000E+00
      0.00000000000000E+00   0.00000000000000E+00   0.00000000000000E+00   0.00000000000000E+00  -1.78373834741605E-15
      0.00000000000000E+00  -1.78373834741605E-15   7.45254303924786E-17   0.00000000000000E+00   0.00000000000000E+00
      0.00000000000000E+00   0.00000000000000E+00   8.26930957546515E-16   0.00000000000000E+00   8.26930957546515E-16
      7.91785716687840E-17   0.00000000000000E+00   0.00000000000000E+00   0.00000000000000E+00   0.00000000000000E+00
     -7.98613284757638E-36   7.98613284757638E-36   0.00000000000000E+00   6.66092360052183E-17   0.00000000000000E+00
      0.00000000000000E+00   0.00000000000000E+00   0.00000000000000E+00  -8.33004200240763E-20   1.46537792477984E-30
     -8.33004200226109E-20  -2.20727405900782E-16
      1.00000000000000E-02
      0.00000000000000E+00   0.00000000000000E+00   0.00000000000000E+00   0.00000000000000E+00  -1.91344899034925E-15
      0.00000000000000E+00  -1.91344899034925E-15   7.18815811556284E-17   0.00000000000000E+00   0.00000000000000E+00
      0.00000000000000E+00   0.00000000000000E+00   8.91751384013316E-16   0.00000000000000E+00   8.91751384013316E-16
      7.69687959672346E-17   2.00000000000000E-02   2.00000000000000E-02   0.00000000000000E+00   0.00000000000000E+00
      1.18940033127990E-32  -1.18940033127990E-32   0.00000000000000E+00   7.80639674412171E-17   0.00000000000000E+00
      0.00000000000000E+00   0.00000000000000E+00   0.00000000000000E+00   4.83590575949611E-19   2.08825916019713E-31
      4.83590575949820E-19  -2.27038657616529E-16
      2.44666666666667E-02
      0.00000000000000E+00   0.00000000000000E+00   0.00000000000000E+00   0.00000000000000E+00  -7.78404892973681E-16
      0.00000000000000E+00  -7.78404892973681E-16   6.81072766195876E-17   0.00000000000000E+00   0.00000000000000E+00
      0.00000000000000E+00   0.00000000000000E+00   8.91773600207006E-16   0.00000000000000E+00   8.91773600207006E-16
      7.38270792184175E-17   4.89333333333333E-02   4.89333333333333E-02   0.00000000000000E+00   0.00000000000000E+00
     -6.66317155848880E-27   6.66317155848880E-27   0.00000000000000E+00   9.49484944946042E-17   0.00000000000000E+00
      0.00000000000000E+00   0.00000000000000E+00   0.00000000000000E+00   2.00525934969241E-14  -3.11243514949915E-28
      2.00525934969238E-14  -2.36587913329896E-16
      4.53951111111111E-02
      0.00000000000000E+00   0.00000000000000E+00   0.00000000000000E+00   0.00000000000000E+00  -9.72620795726326E-16
      0.00000000000000E+00  -9.72620795726326E-16   6.27337551085261E-17   0.00000000000000E+00   0.00000000000000E+00
      0.00000000000000E+00   0.00000000000000E+00   5.67226850711098E-16   0.00000000000000E+00   5.67226850711098E-16
      6.93754829891726E-17   9.07902222222222E-02   9.07902222222222E-02   0.00000000000000E+00   0.00000000000000E+00
     -1.15967086250071E-35   1.15967086250071E-35   0.00000000000000E+00   1.19938770953222E-16   0.00000000000000E+00
      0.00000000000000E+00   0.00000000000000E+00   0.00000000000000E+00   1.02108637651388E-18  -1.94600353706850E-30
      1.02108637651194E-18  -2.51146704104178E-16
      7.53925481481482E-02
      0.00000000000000E+00   0.00000000000000E+00   0.00000000000000E+00   0.00000000000000E+00   8.11770554433100E-16
      0.00000000000000E+00   8.11770554433100E-16   5.51691850801109E-17   0.00000000000000E+00   0.00000000000000E+00
      0.00000000000000E+00   0.00000000000000E+00   1.02155298690330E-15   0.00000000000000E+00   1.02155298690330E-15
      6.31389336783831E-17   1.50785096296296E-01   1.50785096296296E-01   0.00000000000000E+00   0.00000000000000E+00
     -8.58931147421970E-36   8.58931147421970E-36   0.00000000000000E+00   1.56697562504989E-16   0.00000000000000E+00
      0.00000000000000E+00   0.00000000000000E+00   0.00000000000000E+00   1.96413637330063E-18   5.11102334831615E-31
      1.96413637330114E-18  -2.73235537232604E-16
      1.18388874567901E-01
      0.00000000000000E+00   0.00000000000000E+00   0.00000000000000E+00   0.00000000000000E+00   8.19454361436092E-14
      0.00000000000000E+00   8.19454361436092E-14   4.45317178185918E-17   0.00000000000000E+00   0.00000000000000E+00
      0.00000000000000E+00   0.00000000000000E+00  -8.08364856407178E-14   0.00000000000000E+00  -8.08364856407178E-14
      5.44004292006960E-17   2.36777749135803E-01   2.36777749135803E-01   0.00000000000000E+00   0.00000000000000E+00
     -8.31060674585275E-36   8.31060674585275E-36   0.00000000000000E+00   2.10831300337448E-16   0.00000000000000E+00
      0.00000000000000E+00   0.00000000000000E+00   0.00000000000000E+00   7.99366251275195E-18   4.39110261951080E-26
      7.99366255666298E-18  -3.06748524120493E-16
      1.78870373731687E-01
      0.00000000000000E+00   0.00000000000000E+00   0.00000000000000E+00   0.00000000000000E+00   1.07011462834428E-15
      0.00000000000000E+00   1.07011462834428E-15   2.98580942102299E-17   0.00000000000000E+00   0.00000000000000E+00
      0.00000000000000E+00   0.00000000000000E+00  -1.66989228720388E-15   0.00000000000000E+00  -1.66989228720388E-15
      4.23498168374122E-17   3.57740747463375E-01   3.57740747463375E-01   0.00000000000000E+00   0.00000000000000E+00
     -8.60112190309332E-36   8.60112190309332E-36   0.00000000000000E+00   2.88977609205737E-16   0.00000000000000E+00
      0.00000000000000E+00   0.00000000000000E+00   0.00000000000000E+00   1.85898394660022E-19  -1.25997194705877E-30
      1.85898394658762E-19  -3.56420642562538E-16
      2.64754102544263E-01
      0.00000000000000E+00   0.00000000000000E+00   0.00000000000000E+00   0.00000000000000E+00  -6.79963247032529E-16
      0.00000000000000E+00  -6.79963247032529E-16   9.44442932177834E-18   0.00000000000000E+00   0.00000000000000E+00
      0.00000000000000E+00   0.00000000000000E+00  -9.24685128231377E-16   0.00000000000000E+00  -9.24685128231377E-16
      2.54927262654418E-17   5.29508205088527E-01   5.29508205088527E-01   0.00000000000000E+00   0.00000000000000E+00
     -8.88640915382983E-36   8.88640915382983E-36   0.00000000000000E+00   4.02522496446563E-16   0.00000000000000E+00
      0.00000000000000E+00   0.00000000000000E+00   0.00000000000000E+00   1.99916192660350E-18  -6.89243026853146E-28
      1.99916192591425E-18  -4.30211766729550E-16
      3.64754102544263E-01
      0.00000000000000E+00   0.00000000000000E+00   0.00000000000000E+00   0.00000000000000E+00   1.45410948125687E-14
      0.00000000000000E+00   1.45410948125687E-14  -1.38388441716997E-17   0.00000000000000E+00   0.00000000000000E+00
      0.00000000000000E+00   0.00000000000000E+00  -1.19321399477373E-14   0.00000000000000E+00  -1.19321399477373E-14
      6.03891737906279E-18   7.29508205088527E-01   7.29508205088527E-01   0.00000000000000E+00   0.00000000000000E+00
     -1.52528462318653E-35   1.52528462318653E-35   0.00000000000000E+00   5.37088547747161E-16   0.00000000000000E+00
      0.00000000000000E+00   0.00000000000000E+00   0.00000000000000E+00   2.50194886325799E-18   1.48435521368662E-27
      2.50194886474234E-18  -5.19152266173171E-16
      4.64754102544263E-01
      0.00000000000000E+00   0.00000000000000E+00   0.00000000000000E+00   0.00000000000000E+00   1.07080459675930E-15
      0.00000000000000E+00   1.07080459675930E-15  -3.66949166578168E-17   0.00000000000000E+00   0.00000000000000E+00
      0.00000000000000E+00   0.00000000000000E+00  -1.18432498221016E-15   0.00000000000000E+00  -1.18432498221016E-15
     -1.33362251938800E-17   9.29508205088527E-01   9.29508205088527E-01   0.00000000000000E+00   0.00000000000000E+00
     -8.55285642962173E-36   8.55285642962173E-36   0.00000000000000E+00   6.73248073735637E-16   0.00000000000000E+00
      0.00000000000000E+00   0.00000000000000E+00   0.00000000000000E+00  -2.56684772096963E-17  -2.08666700897194E-30
     -2.56684772096984E-17  -6.10194814540228E-16
      5.64754102544263E-01
      0.00000000000000E+00   0.00000000000000E+00   0.00000000000000E+00   0.00000000000000E+00   1.13714435893010E-15
      0.00000000000000E+00   1.13714435893010E-15  -5.91934348323019E-17   0.00000000000000E+00   0.00000000000000E+00
      0.00000000000000E+00   0.00000000000000E+00  -1.60816961325269E-15   0.00000000000000E+00  -1.60816961325269E-15
     -3.26801337291895E-17   1.12950820508853E+00   1.12950820508853E+00   0.00000000000000E+00   0.00000000000000E+00
     -1.00411127970857E-32   1.00411127970857E-32   0.00000000000000E+00   8.10463490722537E-16   0.00000000000000E+00
      0.00000000000000E+00   0.00000000000000E+00   0.00000000000000E+00  -1.26693311109585E-12   3.53763601149475E-28
     -1.26693311109585E-12  -7.02684655333544E-16
      6.64754102544263E-01
      0.00000000000000E+00   0.00000000000000E+00   0.00000000000000E+00   0.00000000000000E+00   1.78364811042867E-15
      0.00000000000000E+00   1.78364811042867E-15  -8.13894483618382E-17   0.00000000000000E+00   0.00000000000000E+00
      0.00000000000000E+00   0.00000000000000E+00   1.02196791316676E-15   0.00000000000000E+00   1.02196791316676E-15
     -5.20129027792913E-17   1.32950820508853E+00   1.32950820508853E+00   0.00000000000000E+00   0.00000000000000E+00
     -1.00106556326312E-32   1.00106556326312E-32   0.00000000000000E+00   9.48418721030506E-16   0.00000000000000E+00
      0.00000000000000E+00   0.00000000000000E+00   0.00000000000000E+00   9.60905893606142E-18   1.47103189947807E-31
      9.60905893606157E-18  -7.96230518618286E-16
      7.64754102544263E-01
      0.00000000000000E+00   0.00000000000000E+00   0.00000000000000E+00   0.00000000000000E+00  -1.36208100310118E-15
      0.00000000000000E+00  -1.36208100310118E-15  -1.03327940912500E-16   0.00000000000000E+00   0.00000000000000E+00
      0.00000000000000E+00   0.00000000000000E+00   4.70406440530567E-16   0.00000000000000E+00   4.70406440530567E-16
     -7.13431768593185E-17   1.52950820508853E+00   1.52950820508853E+00   0.00000000000000E+00   0.00000000000000E+00
     -8.75449014742794E-36   8.75449014742794E-36   0.00000000000000E+00   1.08691269763074E-15   0.00000000000000E+00
      0.00000000000000E+00   0.00000000000000E+00   0.00000000000000E+00   1.12757555821953E-17  -5.43898120614143E-31
      1.12757555821948E-17  -8.90577693271073E-16
      8.64754102544263E-01
      0.00000000000000E+00   0.00000000000000E+00   0.00000000000000E+00   0.00000000000000E+00  -1.84900799943571E-15
      0.00000000000000E+00  -1.84900799943571E-15  -1.25045806406296E-16   0.00000000000000E+00   0.00000000000000E+00
      0.00000000000000E+00   0.00000000000000E+00   2.75520449270516E-16   0.00000000000000E+00   2.75520449270516E-16
     -9.06744861963048E-17   1.72950820508853E+00   1.72950820508853E+00   0.00000000000000E+00   0.00000000000000E+00
     -8.87058638827143E-36   8.87058638827143E-36   0.00000000000000E+00   1.22580982831777E-15   0.00000000000000E+00
      0.00000000000000E+00   0.00000000000000E+00   0.00000000000000E+00   2.77818629261228E-17  -5.55425413833986E-27
      2.77818629205686E-17  -9.85550170144190E-16
      9.64754102544263E-01
      0.00000000000000E+00   0.00000000000000E+00   0.00000000000000E+00   0.00000000000000E+00   3.32368214043439E-17
      0.00000000000000E+00   3.32368214043439E-17  -1.46573297955578E-16   0.00000000000000E+00   0.00000000000000E+00
      0.00000000000000E+00   0.00000000000000E+00  -2.11717615195634E-16   0.00000000000000E+00  -2.11717615195634E-16
     -1.10007976461348E-16   1.92950820508853E+00   1.92950820508853E+00   0.00000000000000E+00   0.00000000000000E+00
     -8.89843949354165E-36   8.89843949354165E-36   0.00000000000000E+00   1.36501440369572E-15   0.00000000000000E+00
      0.00000000000000E+00   0.00000000000000E+00   0.00000000000000E+00  -1.11224132819696E-17  -1.78250121191159E-30
     -1.11224132819714E-17  -1.08102086471246E-15
      1.00000000000000E+00
      0.00000000000000E+00   0.00000000000000E+00   0.00000000000000E+00   0.00000000000000E+00   2.29519562869460E-16
      0.00000000000000E+00   2.29519562869460E-16  -1.54120266919808E-16   0.00000000000000E+00   0.00000000000000E+00
      0.00000000000000E+00   0.00000000000000E+00   3.70128200527636E-16   0.00000000000000E+00   3.70128200527636E-16
     -1.16822781794668E-16   2.00000000000000E+00   2.00000000000000E+00   0.00000000000000E+00   0.00000000000000E+00
     -2.83297689371091E-24   2.83297689371091E-24   0.00000000000000E+00   1.41413791498465E-15   0.00000000000000E+00
      0.00000000000000E+00   0.00000000000000E+00   0.00000000000000E+00  -5.61338259710282E-12  -2.54593654628500E-28
     -5.61338259710282E-12  -1.11477064360159E-15
}
