DF-ISE text

Info {
  version   = 1.0
  type      = xyplot
  datasets  = [
    "time"
    "source OuterVoltage" "source InnerVoltage" "source QuasiFermiPotential" "source DisplacementCurrent" "source eCurrent"
    "source hCurrent" "source TotalCurrent" "source Charge" "drain OuterVoltage" "drain InnerVoltage"
    "drain QuasiFermiPotential" "drain DisplacementCurrent" "drain eCurrent" "drain hCurrent" "drain TotalCurrent"
    "drain Charge" "gate OuterVoltage" "gate InnerVoltage" "gate QuasiFermiPotential" "gate DisplacementCurrent"
    "gate eCurrent" "gate hCurrent" "gate TotalCurrent" "gate Charge" "substrate OuterVoltage"
    "substrate InnerVoltage" "substrate QuasiFermiPotential" "substrate DisplacementCurrent" "substrate eCurrent" "substrate hCurrent"
    "substrate TotalCurrent" "substrate Charge" ]
  functions = [
    Time
    OuterVoltage InnerVoltage QuasiFermiPotential DisplacementCurrent eCurrent
    hCurrent TotalCurrent Charge OuterVoltage InnerVoltage
    QuasiFermiPotential DisplacementCurrent eCurrent hCurrent TotalCurrent
    Charge OuterVoltage InnerVoltage QuasiFermiPotential DisplacementCurrent
    eCurrent hCurrent TotalCurrent Charge OuterVoltage
    InnerVoltage QuasiFermiPotential DisplacementCurrent eCurrent hCurrent
    TotalCurrent Charge ]
}

Data {
      0.00000000000000E+00
      0.00000000000000E+00   0.00000000000000E+00   0.00000000000000E+00   0.00000000000000E+00  -1.76456225906081E-05
      0.00000000000000E+00  -1.76456225906081E-05   4.88303691867941E-17   1.00000000000000E+00   1.00000000000000E+00
      0.00000000000000E+00   0.00000000000000E+00   1.76456225935948E-05   0.00000000000000E+00   1.76456225935948E-05
      3.59035451514826E-16   0.00000000000000E+00   0.00000000000000E+00   0.00000000000000E+00   0.00000000000000E+00
     -8.05100186551160E-36   8.05100186551160E-36   0.00000000000000E+00  -1.11285301644796E-16   0.00000000000000E+00
      0.00000000000000E+00   0.00000000000000E+00   0.00000000000000E+00  -1.72941618891997E-15  -5.06739311315170E-17
     -1.78009012005149E-15  -3.04614364590671E-16
      1.00000000000000E-02
      0.00000000000000E+00   0.00000000000000E+00   0.00000000000000E+00   0.00000000000000E+00  -1.89413519995284E-05
      0.00000000000000E+00  -1.89413519995284E-05   4.61533999974206E-17   1.00000000000000E+00   1.00000000000000E+00
      0.00000000000000E+00   0.00000000000000E+00   1.89413519985334E-05   0.00000000000000E+00   1.89413519985334E-05
      3.56685431126816E-16   2.00000000000000E-02   2.00000000000000E-02   0.00000000000000E+00   0.00000000000000E+00
      1.18983294026424E-32  -1.18983294026424E-32   0.00000000000000E+00  -1.00852554822873E-16   0.00000000000000E+00
      0.00000000000000E+00   0.00000000000000E+00   0.00000000000000E+00  -1.73061008673289E-15  -5.07283061302153E-17
     -1.78133839286310E-15  -3.09729133071164E-16
      2.44666666666667E-02
      0.00000000000000E+00   0.00000000000000E+00   0.00000000000000E+00   0.00000000000000E+00  -2.08888981260717E-05
      0.00000000000000E+00  -2.08888981260717E-05   4.23028600329450E-17   1.00000000000000E+00   1.00000000000000E+00
      0.00000000000000E+00   0.00000000000000E+00   2.08888981264575E-05   0.00000000000000E+00   2.08888981264575E-05
      3.53305073629637E-16   4.89333333333333E-02   4.89333333333333E-02   0.00000000000000E+00   0.00000000000000E+00
     -6.64990830487912E-27   6.64990830487912E-27   0.00000000000000E+00  -8.55502376306780E-17   0.00000000000000E+00
      0.00000000000000E+00   0.00000000000000E+00   0.00000000000000E+00   1.26612465434518E-14  -5.08063331698272E-17
      1.26104402102820E-14  -3.17379666359858E-16
      4.53951111111111E-02
      0.00000000000000E+00   0.00000000000000E+00   0.00000000000000E+00   0.00000000000000E+00  -2.38465559171651E-05
      0.00000000000000E+00  -2.38465559171651E-05   3.67738204864878E-17   1.00000000000000E+00   1.00000000000000E+00
      0.00000000000000E+00   0.00000000000000E+00   2.38465559127234E-05   0.00000000000000E+00   2.38465559127234E-05
      3.48444726951881E-16   9.07902222222222E-02   9.07902222222222E-02   0.00000000000000E+00   0.00000000000000E+00
     -1.06605950033448E-35   1.06605950033448E-35   0.00000000000000E+00  -6.30069288234982E-17   0.00000000000000E+00
      0.00000000000000E+00   0.00000000000000E+00   0.00000000000000E+00  -1.73480839451450E-15  -5.09182941786313E-17
     -1.78572668869313E-15  -3.28924866300375E-16
      7.56715940740741E-02
      0.00000000000000E+00   0.00000000000000E+00   0.00000000000000E+00   0.00000000000000E+00  -2.83782336476973E-05
      0.00000000000000E+00  -2.83782336476973E-05   2.88527408961739E-17   1.00000000000000E+00   1.00000000000000E+00
      0.00000000000000E+00   0.00000000000000E+00   2.83782336458367E-05   0.00000000000000E+00   2.83782336458367E-05
      3.41454494199806E-16   1.51343188148148E-01   1.51343188148148E-01   0.00000000000000E+00   0.00000000000000E+00
      7.82050448535527E-30  -7.82050448535527E-30   0.00000000000000E+00  -2.96283780254794E-17   0.00000000000000E+00
      0.00000000000000E+00   0.00000000000000E+00   0.00000000000000E+00  -1.11124961341670E-14  -5.10779669291057E-17
     -1.11635741010961E-14  -3.46511813633271E-16
      1.19471572760494E-01
      0.00000000000000E+00   0.00000000000000E+00   0.00000000000000E+00   0.00000000000000E+00  -3.53623819856012E-05
      0.00000000000000E+00  -3.53623819856012E-05   1.75359189895609E-17   1.00000000000000E+00   1.00000000000000E+00
      0.00000000000000E+00   0.00000000000000E+00   3.53623819876303E-05   0.00000000000000E+00   3.53623819876303E-05
      3.31388297890779E-16   2.38943145520988E-01   2.38943145520988E-01   0.00000000000000E+00   0.00000000000000E+00
     -3.08475728596839E-29   3.08475728596839E-29   0.00000000000000E+00   2.00292058939527E-17   0.00000000000000E+00
      0.00000000000000E+00   0.00000000000000E+00   0.00000000000000E+00  -1.63063541150211E-15  -5.13030472826374E-17
     -1.68193845878474E-15  -3.73513560729350E-16
      1.82251542211029E-01
      0.00000000000000E+00   0.00000000000000E+00   0.00000000000000E+00   0.00000000000000E+00  -4.60319656693384E-05
      0.00000000000000E+00  -4.60319656693384E-05   1.57034917007944E-18   1.00000000000000E+00   1.00000000000000E+00
      0.00000000000000E+00   0.00000000000000E+00   4.60319656713721E-05   0.00000000000000E+00   4.60319656713721E-05
      3.17000017131378E-16   3.64503084422058E-01   3.64503084422058E-01   0.00000000000000E+00   0.00000000000000E+00
     -8.80783434820490E-36   8.80783434820490E-36   0.00000000000000E+00   9.34586464998828E-17   0.00000000000000E+00
      0.00000000000000E+00   0.00000000000000E+00   0.00000000000000E+00  -1.75159765522571E-15  -5.16111289763098E-17
     -1.80320878420202E-15  -4.14766109716878E-16
      2.71399098830789E-01
      0.00000000000000E+00   0.00000000000000E+00   0.00000000000000E+00   0.00000000000000E+00  -6.20953291268389E-05
      0.00000000000000E+00  -6.20953291268389E-05  -2.06500701700823E-17   1.00000000000000E+00   1.00000000000000E+00
      0.00000000000000E+00   0.00000000000000E+00   6.20953291290887E-05   0.00000000000000E+00   6.20953291290887E-05
      2.96609813663027E-16   5.42798197661577E-01   5.42798197661577E-01   0.00000000000000E+00   0.00000000000000E+00
     -8.70961882707355E-36   8.70961882707355E-36   0.00000000000000E+00   2.01104147201796E-16   0.00000000000000E+00
      0.00000000000000E+00   0.00000000000000E+00   0.00000000000000E+00  -1.09255256567884E-15  -5.20161828547883E-17
     -1.14456874853363E-15  -4.77214831868201E-16
      3.71399098830789E-01
      0.00000000000000E+00   0.00000000000000E+00   0.00000000000000E+00   0.00000000000000E+00  -8.09487648378040E-05
      0.00000000000000E+00  -8.09487648378040E-05  -4.50249210451292E-17   1.00000000000000E+00   1.00000000000000E+00
      0.00000000000000E+00   0.00000000000000E+00   8.09487648417270E-05   0.00000000000000E+00   8.09487648417270E-05
      2.73833725300577E-16   7.42798197661577E-01   7.42798197661577E-01   0.00000000000000E+00   0.00000000000000E+00
     -8.78235210791325E-36   8.78235210791325E-36   0.00000000000000E+00   3.25210997250759E-16   0.00000000000000E+00
      0.00000000000000E+00   0.00000000000000E+00   0.00000000000000E+00   2.28663411852039E-15  -5.24257038413627E-17
      2.23420841467902E-15  -5.51273115935034E-16
      4.71399098830789E-01
      0.00000000000000E+00   0.00000000000000E+00   0.00000000000000E+00   0.00000000000000E+00  -1.00389650019075E-04
      0.00000000000000E+00  -1.00389650019075E-04  -6.88964657180981E-17   1.00000000000000E+00   1.00000000000000E+00
      0.00000000000000E+00   0.00000000000000E+00   1.00389650022971E-04   0.00000000000000E+00   1.00389650022971E-04
      2.51169255803933E-16   9.42798197661577E-01   9.42798197661577E-01   0.00000000000000E+00   0.00000000000000E+00
     -8.70616754983105E-36   8.70616754983105E-36   0.00000000000000E+00   4.51829053093819E-16   0.00000000000000E+00
      0.00000000000000E+00   0.00000000000000E+00   0.00000000000000E+00   8.27242710956388E-17  -5.27934654699016E-17
      2.99308056257373E-17  -6.28460838015320E-16
      5.71399098830789E-01
      0.00000000000000E+00   0.00000000000000E+00   0.00000000000000E+00   0.00000000000000E+00  -1.20236302497258E-04
      0.00000000000000E+00  -1.20236302497258E-04  -9.23344228350373E-17   1.00000000000000E+00   1.00000000000000E+00
      0.00000000000000E+00   0.00000000000000E+00   1.20236302498388E-04   0.00000000000000E+00   1.20236302498388E-04
      2.28635519400870E-16   1.14279819766158E+00   1.14279819766158E+00   0.00000000000000E+00   0.00000000000000E+00
     -8.79190511498941E-36   8.79190511498941E-36   0.00000000000000E+00   5.80324801630490E-16   0.00000000000000E+00
      0.00000000000000E+00   0.00000000000000E+00   0.00000000000000E+00   5.53076592309014E-15  -5.31251178414694E-17
      5.47764080524867E-15  -7.08093689774331E-16
      6.71399098830789E-01
      0.00000000000000E+00   0.00000000000000E+00   0.00000000000000E+00   0.00000000000000E+00  -1.40376084989693E-04
      0.00000000000000E+00  -1.40376084989693E-04  -1.15400331261016E-16   1.00000000000000E+00   1.00000000000000E+00
      0.00000000000000E+00   0.00000000000000E+00   1.40376084990062E-04   0.00000000000000E+00   1.40376084990062E-04
      2.06199031125765E-16   1.34279819766158E+00   1.34279819766158E+00   0.00000000000000E+00   0.00000000000000E+00
      1.00029585348394E-35  -1.00029585348394E-35   0.00000000000000E+00   7.10268174340148E-16   0.00000000000000E+00
      0.00000000000000E+00   0.00000000000000E+00   0.00000000000000E+00   2.87480638247101E-13  -5.34262807060437E-17
      2.87427211966395E-13  -7.89646422548518E-16
      7.71399098830788E-01
      0.00000000000000E+00   0.00000000000000E+00   0.00000000000000E+00   0.00000000000000E+00  -1.60727235793466E-04
      0.00000000000000E+00  -1.60727235793466E-04  -1.38145508655317E-16   1.00000000000000E+00   1.00000000000000E+00
      0.00000000000000E+00   0.00000000000000E+00   1.60727235796208E-04   0.00000000000000E+00   1.60727235796208E-04
      1.83854044871935E-16   1.54279819766158E+00   1.54279819766158E+00   0.00000000000000E+00   0.00000000000000E+00
     -8.73466170234326E-36   8.73466170234326E-36   0.00000000000000E+00   8.41380945673438E-16   0.00000000000000E+00
      0.00000000000000E+00   0.00000000000000E+00   0.00000000000000E+00  -1.79611176301742E-15  -5.37012347181914E-17
     -1.84981299773561E-15  -8.72783628636823E-16
      8.71399098830788E-01
      0.00000000000000E+00   0.00000000000000E+00   0.00000000000000E+00   0.00000000000000E+00  -1.81225347770260E-04
      0.00000000000000E+00  -1.81225347770260E-04  -1.60612357426231E-16   1.00000000000000E+00   1.00000000000000E+00
      0.00000000000000E+00   0.00000000000000E+00   1.81225347770636E-04   0.00000000000000E+00   1.81225347770636E-04
      1.61588678978114E-16   1.74279819766158E+00   1.74279819766158E+00   0.00000000000000E+00   0.00000000000000E+00
     -8.86015998818757E-36   8.86015998818757E-36   0.00000000000000E+00   9.73475677100319E-16   0.00000000000000E+00
      0.00000000000000E+00   0.00000000000000E+00   0.00000000000000E+00  -1.79992529716727E-15  -5.39532329327498E-17
     -1.85387853010002E-15  -9.57263518244507E-16
      9.71399098830788E-01
      0.00000000000000E+00   0.00000000000000E+00   0.00000000000000E+00   0.00000000000000E+00  -2.01817128909499E-04
      0.00000000000000E+00  -2.01817128909499E-04  -1.82835890157837E-16   1.00000000000000E+00   1.00000000000000E+00
      0.00000000000000E+00   0.00000000000000E+00   2.01817128914872E-04   0.00000000000000E+00   2.01817128914872E-04
      1.39412721903590E-16   1.94279819766158E+00   1.94279819766158E+00   0.00000000000000E+00   0.00000000000000E+00
     -8.88394276372015E-36   8.88394276372015E-36   0.00000000000000E+00   1.10641249696791E-15   0.00000000000000E+00
      0.00000000000000E+00   0.00000000000000E+00   0.00000000000000E+00  -1.81023245710034E-15  -5.41848982070119E-17
     -1.86441735530736E-15  -1.04292094561348E-15
      1.00000000000000E+00
      0.00000000000000E+00   0.00000000000000E+00   0.00000000000000E+00   0.00000000000000E+00  -2.07717118235957E-04
      0.00000000000000E+00  -2.07717118235957E-04  -1.89151438379008E-16   1.00000000000000E+00   1.00000000000000E+00
      0.00000000000000E+00   0.00000000000000E+00   2.07717118239353E-04   0.00000000000000E+00   2.07717118239353E-04
      1.33089634506903E-16   2.00000000000000E+00   2.00000000000000E+00   0.00000000000000E+00   0.00000000000000E+00
     -8.07593210991940E-36   8.07593210991940E-36   0.00000000000000E+00   1.14457310512925E-15   0.00000000000000E+00
      0.00000000000000E+00   0.00000000000000E+00   0.00000000000000E+00  -1.79829105179029E-15  -5.42477169923608E-17
     -1.85253876878265E-15  -1.06761973630487E-15
}
