DF-ISE text

Info {
  version   = 1.0
  type      = xyplot
  datasets  = [
    "time"
    "anode OuterVoltage" "anode InnerVoltage" "anode QuasiFermiPotential" "anode DisplacementCurrent" "anode eCurrent"
    "anode hCurrent" "anode TotalCurrent" "anode Charge" "cathode OuterVoltage" "cathode InnerVoltage"
    "cathode QuasiFermiPotential" "cathode DisplacementCurrent" "cathode eCurrent" "cathode hCurrent" "cathode TotalCurrent"
    "cathode Charge" "gate OuterVoltage" "gate InnerVoltage" "gate QuasiFermiPotential" "gate DisplacementCurrent"
    "gate eCurrent" "gate hCurrent" "gate TotalCurrent" "gate Charge" ]
  functions = [
    Time
    OuterVoltage InnerVoltage QuasiFermiPotential DisplacementCurrent eCurrent
    hCurrent TotalCurrent Charge OuterVoltage InnerVoltage
    QuasiFermiPotential DisplacementCurrent eCurrent hCurrent TotalCurrent
    Charge OuterVoltage InnerVoltage QuasiFermiPotential DisplacementCurrent
    eCurrent hCurrent TotalCurrent Charge ]
}

Data {
      0.00000000000000E+00
      0.00000000000000E+00   0.00000000000000E+00   0.00000000000000E+00   0.00000000000000E+00   1.45385076112738E-15
     -9.83468826684334E-29   1.45385076112728E-15  -4.42934320846588E-15   0.00000000000000E+00   0.00000000000000E+00
      0.00000000000000E+00   0.00000000000000E+00  -1.45385076112738E-15   9.84624959853570E-29  -1.45385076112728E-15
     -4.21114869461749E-15   8.00000000000000E+00   8.00000000000000E+00   0.00000000000000E+00   0.00000000000000E+00
      5.54698320492318E-34  -5.54698320492318E-34   0.00000000000000E+00   8.64049190308336E-15
      1.00000000000000E-02
      1.00000000000000E-02   1.00000000000000E-02   0.00000000000000E+00   0.00000000000000E+00  -7.91350295774136E-16
      7.01744483253933E-18  -7.84332850941597E-16  -4.42514023466405E-15   0.00000000000000E+00   0.00000000000000E+00
      0.00000000000000E+00   0.00000000000000E+00   7.85897246258405E-16  -1.56439531680938E-18   7.84332850941595E-16
     -4.21523709526460E-15   8.00000000000000E+00   8.00000000000000E+00   0.00000000000000E+00   0.00000000000000E+00
      5.76158977597218E-35  -5.76158977597218E-35   0.00000000000000E+00   8.64037732992863E-15
      2.44666666666667E-02
      2.44666666666667E-02   2.44666666666667E-02   0.00000000000000E+00   0.00000000000000E+00  -5.23486394463755E-16
      1.95183744965652E-17  -5.03968019967190E-16  -4.41902248155370E-15   0.00000000000000E+00   0.00000000000000E+00
      0.00000000000000E+00   0.00000000000000E+00   5.08293955026053E-16  -4.32593505886359E-18   5.03968019967189E-16
     -4.22118963533062E-15   8.00000000000000E+00   8.00000000000000E+00   0.00000000000000E+00   0.00000000000000E+00
      5.80446043127633E-35  -5.80446043127633E-35   0.00000000000000E+00   8.64021211688430E-15
      4.52022222222222E-02
      4.52022222222222E-02   4.52022222222222E-02   0.00000000000000E+00   0.00000000000000E+00  -6.50610347960114E-16
      4.43352722139382E-17  -6.06275075746176E-16  -4.41017424413679E-15   0.00000000000000E+00   0.00000000000000E+00
      0.00000000000000E+00   0.00000000000000E+00   6.16067716995833E-16  -9.79264124965752E-18   6.06275075746176E-16
     -4.22980218769372E-15   8.00000000000000E+00   8.00000000000000E+00   0.00000000000000E+00   0.00000000000000E+00
      5.84075643950261E-35  -5.84075643950261E-35   0.00000000000000E+00   8.63997643183050E-15
      7.07760740740741E-02
      7.07760740740741E-02   7.07760740740741E-02   0.00000000000000E+00   0.00000000000000E+00   3.15038051056116E-16
      9.47373711079030E-17   4.09775422164019E-16  -4.39912733872789E-15   0.00000000000000E+00   0.00000000000000E+00
      0.00000000000000E+00   0.00000000000000E+00  -3.87190152468362E-16  -2.25852696956569E-17  -4.09775422164019E-16
     -4.24056026709100E-15   8.00000000000000E+00   8.00000000000000E+00   0.00000000000000E+00   0.00000000000000E+00
      7.50890417140808E-35  -7.50890417140808E-35   0.00000000000000E+00   8.63968760581886E-15
      1.07772913086420E-01
      1.07772913086420E-01   1.07772913086420E-01   0.00000000000000E+00   0.00000000000000E+00   9.75828472494676E-16
      2.17812342760764E-16   1.19364081525544E-15  -4.38286900035227E-15   0.00000000000000E+00   0.00000000000000E+00
      0.00000000000000E+00   0.00000000000000E+00  -1.15168907502610E-15  -4.19517402293373E-17  -1.19364081525544E-15
     -4.25640449645178E-15   8.00000000000000E+00   8.00000000000000E+00   0.00000000000000E+00   0.00000000000000E+00
      5.83977120174696E-35  -5.83977120174696E-35   0.00000000000000E+00   8.63927349680398E-15
      1.60801715670782E-01
      1.60801715670782E-01   1.60801715670782E-01   0.00000000000000E+00   0.00000000000000E+00  -4.40122710993633E-17
      9.82914748220964E-16   9.38902477121600E-16  -4.35894501114718E-15   0.00000000000000E+00   0.00000000000000E+00
      0.00000000000000E+00   0.00000000000000E+00  -5.16080844574313E-16  -4.22821632547288E-16  -9.38902477121601E-16
     -4.27974298939324E-15   8.00000000000000E+00   8.00000000000000E+00   0.00000000000000E+00   0.00000000000000E+00
      5.69567026913764E-35  -5.69567026913764E-35   0.00000000000000E+00   8.63868800054042E-15
      1.79626940588230E-01
      1.79626940588230E-01   1.79626940588230E-01   0.00000000000000E+00   0.00000000000000E+00   1.44238728242340E-15
      1.97535980391286E-15   3.41774708633625E-15  -4.35026144801737E-15   0.00000000000000E+00   0.00000000000000E+00
      0.00000000000000E+00   0.00000000000000E+00  -2.27663890571961E-15  -1.14110818061663E-15  -3.41774708633625E-15
     -4.28822111047117E-15   8.00000000000000E+00   8.00000000000000E+00   0.00000000000000E+00   0.00000000000000E+00
      6.08444526493356E-35  -6.08444526493356E-35   0.00000000000000E+00   8.63848255848853E-15
      2.06860765968806E-01
      2.06860765968806E-01   2.06860765968806E-01   0.00000000000000E+00   0.00000000000000E+00   2.81940485536741E-15
      4.63590213672832E-15   7.45530699209573E-15  -4.33750828902974E-15   0.00000000000000E+00   0.00000000000000E+00
      0.00000000000000E+00   0.00000000000000E+00  -4.29701286002271E-15  -3.15829413207302E-15  -7.45530699209573E-15
     -4.30067942767080E-15   8.00000000000000E+00   8.00000000000000E+00   0.00000000000000E+00   0.00000000000000E+00
      5.72052598165912E-35  -5.72052598165912E-35   0.00000000000000E+00   8.63818771670053E-15
      2.26378340824885E-01
      2.26378340824885E-01   2.26378340824885E-01   0.00000000000000E+00   0.00000000000000E+00   6.91738732611046E-15
      8.80057265200687E-15   1.57179599781173E-14  -4.32822188521453E-15   0.00000000000000E+00   0.00000000000000E+00
      0.00000000000000E+00   0.00000000000000E+00  -9.13954260816061E-15  -6.57841736995673E-15  -1.57179599781173E-14
     -4.30975632139517E-15   8.00000000000000E+00   8.00000000000000E+00   0.00000000000000E+00   0.00000000000000E+00
      5.98086699281164E-35  -5.98086699281164E-35   0.00000000000000E+00   8.63797820660970E-15
      2.54353531451932E-01
      2.54353531451932E-01   2.54353531451932E-01   0.00000000000000E+00   0.00000000000000E+00   1.71003995350965E-14
      2.29185576636392E-14   4.00189571987357E-14  -4.31468360973285E-15   0.00000000000000E+00   0.00000000000000E+00
      0.00000000000000E+00   0.00000000000000E+00  -2.10873676818406E-14  -1.89315895168951E-14  -4.00189571987357E-14
     -4.32299704419950E-15   8.00000000000000E+00   8.00000000000000E+00   0.00000000000000E+00   0.00000000000000E+00
      5.74123522544562E-35  -5.74123522544562E-35   0.00000000000000E+00   8.63768065393230E-15
      2.74402418067982E-01
      2.74402418067982E-01   2.74402418067982E-01   0.00000000000000E+00   0.00000000000000E+00   3.92606984075423E-14
      4.66497091792300E-14   8.59104075867723E-14  -4.30480571122573E-15   0.00000000000000E+00   0.00000000000000E+00
      0.00000000000000E+00   0.00000000000000E+00  -4.53263757054114E-14  -4.05840318813609E-14  -8.59104075867723E-14
     -4.33266378094300E-15   8.00000000000000E+00   8.00000000000000E+00   0.00000000000000E+00   0.00000000000000E+00
      5.67458112887714E-35  -5.67458112887714E-35   0.00000000000000E+00   8.63746949216872E-15
      3.02871837062774E-01
      3.02871837062774E-01   3.02871837062774E-01   0.00000000000000E+00   0.00000000000000E+00   1.13842402214442E-13
      1.30788346309857E-13   2.44630748524299E-13  -4.29050834321369E-15   0.00000000000000E+00   0.00000000000000E+00
      0.00000000000000E+00   0.00000000000000E+00  -1.24871633693642E-13  -1.19759114830657E-13  -2.44630748524299E-13
     -4.34666445262858E-15   8.00000000000000E+00   8.00000000000000E+00   0.00000000000000E+00   0.00000000000000E+00
      5.71021165416337E-35  -5.71021165416337E-35   0.00000000000000E+00   8.63717279584228E-15
      3.23085124549075E-01
      3.23085124549075E-01   3.23085124549075E-01   0.00000000000000E+00   0.00000000000000E+00   2.47597170932210E-13
      2.74961164860731E-13   5.22558335792942E-13  -4.28015054309487E-15   0.00000000000000E+00   0.00000000000000E+00
      0.00000000000000E+00   0.00000000000000E+00  -2.64492537942930E-13  -2.58065797850012E-13  -5.22558335792942E-13
     -4.35681395312810E-15   8.00000000000000E+00   8.00000000000000E+00   0.00000000000000E+00   0.00000000000000E+00
      5.70998069667398E-35  -5.70998069667398E-35   0.00000000000000E+00   8.63696449622295E-15
      3.51787992779624E-01
      3.51787992779624E-01   3.51787992779624E-01   0.00000000000000E+00   0.00000000000000E+00   7.45604709774923E-13
      7.98138221297495E-13   1.54374293107242E-12  -4.26512232276492E-15   0.00000000000000E+00   0.00000000000000E+00
      0.00000000000000E+00   0.00000000000000E+00  -7.76673144993805E-13  -7.67069786078612E-13  -1.54374293107242E-12
     -4.37154992563544E-15   8.00000000000000E+00   8.00000000000000E+00   0.00000000000000E+00   0.00000000000000E+00
      5.70508930387048E-35  -5.70508930387048E-35   0.00000000000000E+00   8.63667224840038E-15
      3.72167029223313E-01
      3.72167029223313E-01   3.72167029223313E-01   0.00000000000000E+00   0.00000000000000E+00   1.63329498875913E-12
      1.70947114507362E-12   3.34276613383274E-12  -4.25420571320448E-15   0.00000000000000E+00   0.00000000000000E+00
      0.00000000000000E+00   0.00000000000000E+00  -1.68131680135652E-12  -1.66144933247622E-12  -3.34276613383274E-12
     -4.38226167564266E-15   8.00000000000000E+00   8.00000000000000E+00   0.00000000000000E+00   0.00000000000000E+00
      5.67283546422273E-35  -5.67283546422273E-35   0.00000000000000E+00   8.63646738884711E-15
      4.01105260973353E-01
      4.01105260973353E-01   4.01105260973353E-01   0.00000000000000E+00   0.00000000000000E+00   4.96593372482803E-12
      5.06411276908005E-12   1.00300464939081E-11  -4.23831795438429E-15   0.00000000000000E+00   0.00000000000000E+00
      0.00000000000000E+00   0.00000000000000E+00  -5.05550641349707E-12  -4.97454008041103E-12  -1.00300464939081E-11
     -4.39786249186586E-15   8.00000000000000E+00   8.00000000000000E+00   0.00000000000000E+00   0.00000000000000E+00
      5.71348761527326E-35  -5.71348761527326E-35   0.00000000000000E+00   8.63618044625011E-15
      4.21651405515880E-01
      4.21651405515880E-01   4.21651405515880E-01   0.00000000000000E+00   0.00000000000000E+00   1.09396762807972E-11
      1.09703486335684E-11   2.19100249143656E-11  -4.22673708108380E-15   0.00000000000000E+00   0.00000000000000E+00
      0.00000000000000E+00   0.00000000000000E+00  -1.10797117399306E-11  -1.08303131744350E-11  -2.19100249143656E-11
     -4.40924259309825E-15   8.00000000000000E+00   8.00000000000000E+00   0.00000000000000E+00   0.00000000000000E+00
      5.68564005973771E-35  -5.68564005973771E-35   0.00000000000000E+00   8.63597967418205E-15
      4.50826930766270E-01
      4.50826930766270E-01   4.50826930766270E-01   0.00000000000000E+00   0.00000000000000E+00   3.35657428490745E-11
      3.29290398242747E-11   6.64947826733492E-11  -4.20981567900078E-15   0.00000000000000E+00   0.00000000000000E+00
      0.00000000000000E+00   0.00000000000000E+00  -3.38318322228371E-11  -3.26629504505121E-11  -6.64947826733493E-11
     -4.42588336815733E-15   8.00000000000000E+00   8.00000000000000E+00   0.00000000000000E+00   0.00000000000000E+00
      5.70300631538686E-35  -5.70300631538686E-35   0.00000000000000E+00   8.63569904715810E-15
      4.71541553694046E-01
      4.71541553694046E-01   4.71541553694046E-01   0.00000000000000E+00   0.00000000000000E+00   7.43798249555991E-11
      7.18962242228557E-11   1.46276049178455E-10  -4.19742644087409E-15   0.00000000000000E+00   0.00000000000000E+00
      0.00000000000000E+00   0.00000000000000E+00  -7.48022656966093E-11  -7.14737834818454E-11  -1.46276049178455E-10
     -4.43807671817737E-15   8.00000000000000E+00   8.00000000000000E+00   0.00000000000000E+00   0.00000000000000E+00
      5.69139416338409E-35  -5.69139416338409E-35   0.00000000000000E+00   8.63550315905146E-15
      4.99851538362007E-01
      4.99851538362007E-01   4.99851538362007E-01   0.00000000000000E+00   0.00000000000000E+00   2.20559899904395E-10
      2.09012109363245E-10   4.29572009267640E-10  -4.17992919785807E-15   0.00000000000000E+00   0.00000000000000E+00
      0.00000000000000E+00   0.00000000000000E+00  -2.21363102909453E-10  -2.08208906358187E-10  -4.29572009267640E-10
     -4.45531097475036E-15   8.00000000000000E+00   8.00000000000000E+00   0.00000000000000E+00   0.00000000000000E+00
      5.70638924603349E-35  -5.70638924603349E-35   0.00000000000000E+00   8.63524017260841E-15
      5.19951627476260E-01
      5.19951627476260E-01   5.19951627476260E-01   0.00000000000000E+00   0.00000000000000E+00   4.76984364556017E-10
      4.45738446373688E-10   9.22722810929705E-10  -4.16706598063712E-15   0.00000000000000E+00   0.00000000000000E+00
      0.00000000000000E+00   0.00000000000000E+00  -4.78263716174547E-10  -4.44459094755158E-10  -9.22722810929706E-10
     -4.46799079379062E-15   8.00000000000000E+00   8.00000000000000E+00   0.00000000000000E+00   0.00000000000000E+00
      5.69721715605876E-35  -5.69721715605876E-35   0.00000000000000E+00   8.63505677442773E-15
      5.48225752830308E-01
      5.48225752830308E-01   5.48225752830308E-01   0.00000000000000E+00   0.00000000000000E+00   1.41025603502096E-09
      1.29206924083245E-09   2.70232527585341E-09  -4.14827672016631E-15   0.00000000000000E+00   0.00000000000000E+00
      0.00000000000000E+00   0.00000000000000E+00  -1.41275827779702E-09  -1.28956699805639E-09  -2.70232527585341E-09
     -4.48652611528304E-15   8.00000000000000E+00   8.00000000000000E+00   0.00000000000000E+00   0.00000000000000E+00
      5.70782316444787E-35  -5.70782316444787E-35   0.00000000000000E+00   8.63480283544934E-15
      5.58263067330995E-01
      5.58263067330995E-01   5.58263067330995E-01   0.00000000000000E+00   0.00000000000000E+00   2.07139629025346E-09
      1.88438312576685E-09   3.95577941602031E-09  -4.14139391660837E-15   0.00000000000000E+00   0.00000000000000E+00
      0.00000000000000E+00   0.00000000000000E+00  -2.07458786737722E-09  -1.88119154864309E-09  -3.95577941602031E-09
     -4.49331948856262E-15   8.00000000000000E+00   8.00000000000000E+00   0.00000000000000E+00   0.00000000000000E+00
      5.69840041343671E-35  -5.69840041343671E-35   0.00000000000000E+00   8.63471340517101E-15
      5.61859771693742E-01
      5.61859771693742E-01   5.61859771693742E-01   0.00000000000000E+00   0.00000000000000E+00   2.37719350023344E-09
      2.15704781830835E-09   4.53424131854178E-09  -4.13889891017571E-15   0.00000000000000E+00   0.00000000000000E+00
      0.00000000000000E+00   0.00000000000000E+00  -2.38067836552291E-09  -2.15356295301887E-09  -4.53424131854178E-09
     -4.49578246720277E-15   8.00000000000000E+00   8.00000000000000E+00   0.00000000000000E+00   0.00000000000000E+00
      5.68351019384862E-35  -5.68351019384862E-35   0.00000000000000E+00   8.63468137737847E-15
      5.64437409820376E-01
      5.64437409820376E-01   5.64437409820376E-01   0.00000000000000E+00   0.00000000000000E+00   2.62368707195832E-09
      2.37634093470471E-09   5.00002800666304E-09  -4.13710133307708E-15   0.00000000000000E+00   0.00000000000000E+00
      0.00000000000000E+00   0.00000000000000E+00  -2.62739946271970E-09  -2.37262854394334E-09  -5.00002800666304E-09
     -4.49755708270341E-15   8.00000000000000E+00   8.00000000000000E+00   0.00000000000000E+00   0.00000000000000E+00
      5.68062468864349E-35  -5.68062468864349E-35   0.00000000000000E+00   8.63465841578048E-15
      5.68166392976908E-01
      5.68166392976908E-01   5.68166392976908E-01   0.00000000000000E+00   0.00000000000000E+00   3.02609180745788E-09
      2.73350255552882E-09   5.75959436298670E-09  -4.13448665790427E-15   0.00000000000000E+00   0.00000000000000E+00
      0.00000000000000E+00   0.00000000000000E+00  -3.03016137241505E-09  -2.72943299057165E-09  -5.75959436298670E-09
     -4.50013851214633E-15   8.00000000000000E+00   8.00000000000000E+00   0.00000000000000E+00   0.00000000000000E+00
      5.69867246278480E-35  -5.69867246278480E-35   0.00000000000000E+00   8.63462517005062E-15
      5.70764251242625E-01
      5.70764251242625E-01   5.70764251242625E-01   0.00000000000000E+00   0.00000000000000E+00   3.34227614821619E-09
      3.01348617292724E-09   6.35576232114343E-09  -4.13265509480838E-15   0.00000000000000E+00   0.00000000000000E+00
      0.00000000000000E+00   0.00000000000000E+00  -3.34661578006637E-09  -3.00914654107706E-09  -6.35576232114344E-09
     -4.50194688340221E-15   8.00000000000000E+00   8.00000000000000E+00   0.00000000000000E+00   0.00000000000000E+00
      5.68879594124307E-35  -5.68879594124307E-35   0.00000000000000E+00   8.63460197821056E-15
      5.72643368721494E-01
      5.72643368721494E-01   5.72643368721494E-01   0.00000000000000E+00   0.00000000000000E+00   3.59132806275425E-09
      3.23365672330729E-09   6.82498478606153E-09  -4.13132509962114E-15   0.00000000000000E+00   0.00000000000000E+00
      0.00000000000000E+00   0.00000000000000E+00  -3.59587475378656E-09  -3.22911003227497E-09  -6.82498478606153E-09
     -4.50326008164312E-15   8.00000000000000E+00   8.00000000000000E+00   0.00000000000000E+00   0.00000000000000E+00
      5.69525670854127E-35  -5.69525670854127E-35   0.00000000000000E+00   8.63458518126427E-15
      5.75361825340924E-01
      5.75361825340924E-01   5.75361825340924E-01   0.00000000000000E+00   0.00000000000000E+00   3.98473108630317E-09
      3.58083789767591E-09   7.56556898397908E-09  -4.12939331426310E-15   0.00000000000000E+00   0.00000000000000E+00
      0.00000000000000E+00   0.00000000000000E+00  -3.98959590635027E-09  -3.57597307762881E-09  -7.56556898397908E-09
     -4.50516752697336E-15   8.00000000000000E+00   8.00000000000000E+00   0.00000000000000E+00   0.00000000000000E+00
      5.70199878932298E-35  -5.70199878932298E-35   0.00000000000000E+00   8.63456084123646E-15
      5.77328175628978E-01
      5.77328175628978E-01   5.77328175628978E-01   0.00000000000000E+00   0.00000000000000E+00   4.29581279743230E-09
      3.85488580172126E-09   8.15069859915356E-09  -4.12799026155843E-15   0.00000000000000E+00   0.00000000000000E+00
      0.00000000000000E+00   0.00000000000000E+00  -4.30092227911286E-09  -3.84977632004069E-09  -8.15069859915355E-09
     -4.50655293775800E-15   8.00000000000000E+00   8.00000000000000E+00   0.00000000000000E+00   0.00000000000000E+00
      5.67280321492817E-35  -5.67280321492817E-35   0.00000000000000E+00   8.63454319931642E-15
      5.80172829045697E-01
      5.80172829045697E-01   5.80172829045697E-01   0.00000000000000E+00   0.00000000000000E+00   4.78917885271543E-09
      4.28871999890002E-09   9.07789885161546E-09  -4.12595194867281E-15   0.00000000000000E+00   0.00000000000000E+00
      0.00000000000000E+00   0.00000000000000E+00  -4.79466544433162E-09  -4.28323340728385E-09  -9.07789885161547E-09
     -4.50856566359094E-15   8.00000000000000E+00   8.00000000000000E+00   0.00000000000000E+00   0.00000000000000E+00
      5.70653631579908E-35  -5.70653631579908E-35   0.00000000000000E+00   8.63451761226375E-15
      5.82230461683790E-01
      5.82230461683790E-01   5.82230461683790E-01   0.00000000000000E+00   0.00000000000000E+00   5.18088497928980E-09
      4.63251913524445E-09   9.81340411453425E-09  -4.12447122420028E-15   0.00000000000000E+00   0.00000000000000E+00
      0.00000000000000E+00   0.00000000000000E+00  -5.18666254048286E-09  -4.62674157405140E-09  -9.81340411453426E-09
     -4.51002782363784E-15   8.00000000000000E+00   8.00000000000000E+00   0.00000000000000E+00   0.00000000000000E+00
      5.68642744001183E-35  -5.68642744001183E-35   0.00000000000000E+00   8.63449904783810E-15
      5.85207170233565E-01
      5.85207170233565E-01   5.85207170233565E-01   0.00000000000000E+00   0.00000000000000E+00   5.80472456674998E-09
      5.17899548514695E-09   1.09837200518969E-08  -4.12231963251568E-15   0.00000000000000E+00   0.00000000000000E+00
      0.00000000000000E+00   0.00000000000000E+00  -5.81095213982244E-09  -5.17276791207449E-09  -1.09837200518969E-08
     -4.51215245891649E-15   8.00000000000000E+00   8.00000000000000E+00   0.00000000000000E+00   0.00000000000000E+00
      5.69493886444633E-35  -5.69493886444633E-35   0.00000000000000E+00   8.63447209143220E-15
      5.87360322751236E-01
      5.87360322751236E-01   5.87360322751236E-01   0.00000000000000E+00   0.00000000000000E+00   6.30211155339128E-09
      5.61383642533149E-09   1.19159479787228E-08  -4.12075629959350E-15   0.00000000000000E+00   0.00000000000000E+00
      0.00000000000000E+00   0.00000000000000E+00  -6.30868754562284E-09  -5.60726043309992E-09  -1.19159479787228E-08
     -4.51369620798739E-15   8.00000000000000E+00   8.00000000000000E+00   0.00000000000000E+00   0.00000000000000E+00
      5.69550940917613E-35  -5.69550940917613E-35   0.00000000000000E+00   8.63445250758087E-15
      5.90475216726799E-01
      5.90475216726799E-01   5.90475216726799E-01   0.00000000000000E+00   0.00000000000000E+00   7.09772291160826E-09
      6.30795760045651E-09   1.34056805120648E-08  -4.11848421383529E-15   0.00000000000000E+00   0.00000000000000E+00
      0.00000000000000E+00   0.00000000000000E+00  -7.10483970480984E-09  -6.30084080725492E-09  -1.34056805120648E-08
     -4.51593981340544E-15   8.00000000000000E+00   8.00000000000000E+00   0.00000000000000E+00   0.00000000000000E+00
      5.69754183006206E-35  -5.69754183006206E-35   0.00000000000000E+00   8.63442402724071E-15
      5.92728323369123E-01
      5.92728323369123E-01   5.92728323369123E-01   0.00000000000000E+00   0.00000000000000E+00   7.73485141137647E-09
      6.86263344003864E-09   1.45974848514151E-08  -4.11683300364874E-15   0.00000000000000E+00   0.00000000000000E+00
      0.00000000000000E+00   0.00000000000000E+00  -7.74238844590911E-09  -6.85509640550601E-09  -1.45974848514151E-08
     -4.51757029657164E-15   8.00000000000000E+00   8.00000000000000E+00   0.00000000000000E+00   0.00000000000000E+00
      5.73687234718941E-35  -5.73687234718941E-35   0.00000000000000E+00   8.63440330022035E-15
      5.95987817645018E-01
      5.95987817645018E-01   5.95987817645018E-01   0.00000000000000E+00   0.00000000000000E+00   8.75862386345230E-09
      7.75193749443592E-09   1.65105613578882E-08  -4.11443273660335E-15   0.00000000000000E+00   0.00000000000000E+00
      0.00000000000000E+00   0.00000000000000E+00  -8.76681565644331E-09  -7.74374570144492E-09  -1.65105613578882E-08
     -4.51994036006795E-15   8.00000000000000E+00   8.00000000000000E+00   0.00000000000000E+00   0.00000000000000E+00
      5.69680169478136E-35  -5.69680169478136E-35   0.00000000000000E+00   8.63437309667128E-15
      5.98345518504583E-01
      5.98345518504583E-01   5.98345518504583E-01   0.00000000000000E+00   0.00000000000000E+00   9.58220016943475E-09
      8.46571707275049E-09   1.80479172421852E-08  -4.11268804776593E-15   0.00000000000000E+00   0.00000000000000E+00
      0.00000000000000E+00   0.00000000000000E+00  -9.59090271790984E-09  -8.45701452427541E-09  -1.80479172421853E-08
     -4.52166301767936E-15   8.00000000000000E+00   8.00000000000000E+00   0.00000000000000E+00   0.00000000000000E+00
      5.67580265875893E-35  -5.67580265875893E-35   0.00000000000000E+00   8.63435106544529E-15
      6.01756325748086E-01
      6.01756325748086E-01   6.01756325748086E-01   0.00000000000000E+00   0.00000000000000E+00   1.09118198954904E-08
      9.61531640211512E-09   2.05271362976056E-08  -4.11015144889809E-15   0.00000000000000E+00   0.00000000000000E+00
      0.00000000000000E+00   0.00000000000000E+00  -1.09213214172707E-08  -9.60581488033488E-09  -2.05271362976056E-08
     -4.52416742792361E-15   8.00000000000000E+00   8.00000000000000E+00   0.00000000000000E+00   0.00000000000000E+00
      5.68335925038031E-35  -5.68335925038031E-35   0.00000000000000E+00   8.63431887682169E-15
      6.04223476320887E-01
      6.04223476320887E-01   6.04223476320887E-01   0.00000000000000E+00   0.00000000000000E+00   1.19864947677016E-08
      1.05422133376244E-08   2.25287081053260E-08  -4.10830736195611E-15   0.00000000000000E+00   0.00000000000000E+00
      0.00000000000000E+00   0.00000000000000E+00  -1.19966220719055E-08  -1.05320860334205E-08  -2.25287081053260E-08
     -4.52598796589755E-15   8.00000000000000E+00   8.00000000000000E+00   0.00000000000000E+00   0.00000000000000E+00
      5.67510806011766E-35  -5.67510806011766E-35   0.00000000000000E+00   8.63429532785367E-15
      6.07792620816205E-01
      6.07792620816205E-01   6.07792620816205E-01   0.00000000000000E+00   0.00000000000000E+00   1.37299782421145E-08
      1.20420543388885E-08   2.57720325810029E-08  -4.10562585381869E-15   0.00000000000000E+00   0.00000000000000E+00
      0.00000000000000E+00   0.00000000000000E+00  -1.37410885828006E-08  -1.20309439982023E-08  -2.57720325810029E-08
     -4.52863495019358E-15   8.00000000000000E+00   8.00000000000000E+00   0.00000000000000E+00   0.00000000000000E+00
      5.70833246545406E-35  -5.70833246545406E-35   0.00000000000000E+00   8.63426080401223E-15
      6.10350507704516E-01
      6.10350507704516E-01   6.10350507704516E-01   0.00000000000000E+00   0.00000000000000E+00   1.51323540874251E-08
      1.32452632745010E-08   2.83776173619261E-08  -4.10369417837977E-15   0.00000000000000E+00   0.00000000000000E+00
      0.00000000000000E+00   0.00000000000000E+00  -1.51442302769148E-08  -1.32333870850113E-08  -2.83776173619261E-08
     -4.53054150640750E-15   8.00000000000000E+00   8.00000000000000E+00   0.00000000000000E+00   0.00000000000000E+00
      5.71165616524431E-35  -5.71165616524431E-35   0.00000000000000E+00   8.63423568478726E-15
      6.14050917402940E-01
      6.14050917402940E-01   6.14050917402940E-01   0.00000000000000E+00   0.00000000000000E+00   1.74164515492947E-08
      1.51994656036146E-08   3.26159171529093E-08  -4.10088515713614E-15   0.00000000000000E+00   0.00000000000000E+00
      0.00000000000000E+00   0.00000000000000E+00  -1.74295351486445E-08  -1.51863820042647E-08  -3.26159171529092E-08
     -4.53331354605217E-15   8.00000000000000E+00   8.00000000000000E+00   0.00000000000000E+00   0.00000000000000E+00
      5.71771408437929E-35  -5.71771408437929E-35   0.00000000000000E+00   8.63419870318832E-15
      6.16678208288821E-01
      6.16678208288821E-01   6.16678208288821E-01   0.00000000000000E+00   0.00000000000000E+00   1.92428501270589E-08
      1.67575870987799E-08   3.60004372258388E-08  -4.09888044002767E-15   0.00000000000000E+00   0.00000000000000E+00
      0.00000000000000E+00   0.00000000000000E+00  -1.92568686780941E-08  -1.67435685477447E-08  -3.60004372258388E-08
     -4.53529148339477E-15   8.00000000000000E+00   8.00000000000000E+00   0.00000000000000E+00   0.00000000000000E+00
      5.67492124887629E-35  -5.67492124887629E-35   0.00000000000000E+00   8.63417192342241E-15
      6.18578615362942E-01
      6.18578615362942E-01   6.18578615362942E-01   0.00000000000000E+00   0.00000000000000E+00   2.06811892940080E-08
      1.79820652476583E-08   3.86632545416662E-08  -4.09742509437406E-15   0.00000000000000E+00   0.00000000000000E+00
      0.00000000000000E+00   0.00000000000000E+00  -2.06959275848553E-08  -1.79673269568109E-08  -3.86632545416662E-08
     -4.53672715531758E-15   8.00000000000000E+00   8.00000000000000E+00   0.00000000000000E+00   0.00000000000000E+00
      5.70629504671041E-35  -5.70629504671041E-35   0.00000000000000E+00   8.63415224969166E-15
      6.21327870930169E-01
      6.21327870930169E-01   6.21327870930169E-01   0.00000000000000E+00   0.00000000000000E+00   2.29525764374867E-08
      1.99114028420766E-08   4.28639792795633E-08  -4.09531198099630E-15   0.00000000000000E+00   0.00000000000000E+00
      0.00000000000000E+00   0.00000000000000E+00  -2.29684251269562E-08  -1.98955541526071E-08  -4.28639792795633E-08
     -4.53881131035143E-15   8.00000000000000E+00   8.00000000000000E+00   0.00000000000000E+00   0.00000000000000E+00
      5.67852962549137E-35  -5.67852962549137E-35   0.00000000000000E+00   8.63412329134773E-15
      6.23316499123797E-01
      6.23316499123797E-01   6.23316499123797E-01   0.00000000000000E+00   0.00000000000000E+00   2.47480095496840E-08
      2.14329438289191E-08   4.61809533786031E-08  -4.09377789716458E-15   0.00000000000000E+00   0.00000000000000E+00
      0.00000000000000E+00   0.00000000000000E+00  -2.47647157240416E-08  -2.14162376545614E-08  -4.61809533786030E-08
     -4.54032404724448E-15   8.00000000000000E+00   8.00000000000000E+00   0.00000000000000E+00   0.00000000000000E+00
      5.70147634380598E-35  -5.70147634380598E-35   0.00000000000000E+00   8.63410194440904E-15
      6.26193381243913E-01
      6.26193381243913E-01   6.26193381243913E-01   0.00000000000000E+00   0.00000000000000E+00   2.75941662301747E-08