DF-ISE text

Info {
  version   = 1.0
  type      = xyplot
  datasets  = [
    "time"
    "anode OuterVoltage" "anode InnerVoltage" "anode QuasiFermiPotential" "anode DisplacementCurrent" "anode eCurrent"
    "anode hCurrent" "anode TotalCurrent" "anode Charge" "cathode OuterVoltage" "cathode InnerVoltage"
    "cathode QuasiFermiPotential" "cathode DisplacementCurrent" "cathode eCurrent" "cathode hCurrent" "cathode TotalCurrent"
    "cathode Charge" "gate OuterVoltage" "gate InnerVoltage" "gate QuasiFermiPotential" "gate DisplacementCurrent"
    "gate eCurrent" "gate hCurrent" "gate TotalCurrent" "gate Charge" ]
  functions = [
    Time
    OuterVoltage InnerVoltage QuasiFermiPotential DisplacementCurrent eCurrent
    hCurrent TotalCurrent Charge OuterVoltage InnerVoltage
    QuasiFermiPotential DisplacementCurrent eCurrent hCurrent TotalCurrent
    Charge OuterVoltage InnerVoltage QuasiFermiPotential DisplacementCurrent
    eCurrent hCurrent TotalCurrent Charge ]
}

Data {
      0.00000000000000E+00
      0.00000000000000E+00   0.00000000000000E+00   0.00000000000000E+00   0.00000000000000E+00  -1.26550148620813E-26
     -2.95591602092330E-17  -2.95591602218880E-17   3.29501616969122E-15   0.00000000000000E+00   0.00000000000000E+00
      0.00000000000000E+00   0.00000000000000E+00   1.26549780317096E-26   2.95591602092330E-17   2.95591602218880E-17
      4.27626504780167E-15  -8.00000000000000E+00  -8.00000000000000E+00   0.00000000000000E+00   0.00000000000000E+00
     -1.67646023345269E-29   1.67646023345269E-29   0.00000000000000E+00  -7.57128121749291E-15
      1.00000000000000E-02
      1.00000000000000E-02   1.00000000000000E-02   0.00000000000000E+00   0.00000000000000E+00   1.35402834739431E-19
      1.82239785383673E-17   1.83593813731067E-17   3.30117711863425E-15   0.00000000000000E+00   0.00000000000000E+00
      0.00000000000000E+00   0.00000000000000E+00  -2.14131107237767E-18  -1.62180703007291E-17  -1.83593813731067E-17
      4.28097512078606E-15  -8.00000000000000E+00  -8.00000000000000E+00   0.00000000000000E+00   0.00000000000000E+00
      4.36609480156212E-35  -4.36609480156212E-35   0.00000000000000E+00  -7.58215223942031E-15
      2.44666666666667E-02
      2.44666666666667E-02   2.44666666666667E-02   0.00000000000000E+00   0.00000000000000E+00   4.61666191998132E-19
      1.48012642881393E-15   1.48058809500592E-15   3.31009634890499E-15   0.00000000000000E+00   0.00000000000000E+00
      0.00000000000000E+00   0.00000000000000E+00  -6.03163744593288E-18  -1.47455645755999E-15  -1.48058809500592E-15
      4.28778302200614E-15  -8.00000000000000E+00  -8.00000000000000E+00   0.00000000000000E+00   0.00000000000000E+00
      4.35221660399705E-35  -4.35221660399705E-35   0.00000000000000E+00  -7.59787937091110E-15
      4.52022222222222E-02
      4.52022222222222E-02   4.52022222222222E-02   0.00000000000000E+00   0.00000000000000E+00   1.29952715429749E-18
      2.00594947091650E-16   2.01894474245948E-16   3.32289420487090E-15   0.00000000000000E+00   0.00000000000000E+00
      0.00000000000000E+00   0.00000000000000E+00  -1.39133984424171E-17  -1.87981075803531E-16  -2.01894474245948E-16
      4.29752818224465E-15  -8.00000000000000E+00  -8.00000000000000E+00   0.00000000000000E+00   0.00000000000000E+00
      4.34159807376881E-35  -4.34159807376881E-35   0.00000000000000E+00  -7.62042238711554E-15
      7.40937629629630E-02
      7.40937629629630E-02   7.40937629629630E-02   0.00000000000000E+00   0.00000000000000E+00   4.38299118211193E-18
      4.09820358732562E-17   4.53650270553682E-17   3.34075399511742E-15   0.00000000000000E+00   0.00000000000000E+00
      0.00000000000000E+00   0.00000000000000E+00  -3.29742884641353E-17  -1.23907385912329E-17  -4.53650270553682E-17
      4.31107988268720E-15  -8.00000000000000E+00  -8.00000000000000E+00   0.00000000000000E+00   0.00000000000000E+00
      4.35582249347373E-35  -4.35582249347373E-35   0.00000000000000E+00  -7.65183387780462E-15
      1.15504971358025E-01
      1.15504971358025E-01   1.15504971358025E-01   0.00000000000000E+00   0.00000000000000E+00   2.07621124157595E-17
      6.30260846210556E-17   8.37881970368151E-17   3.36641446629106E-15   0.00000000000000E+00   0.00000000000000E+00
      0.00000000000000E+00   0.00000000000000E+00  -9.68574904063929E-17   1.30692933695778E-17  -8.37881970368151E-17
      4.33044568642294E-15  -8.00000000000000E+00  -8.00000000000000E+00   0.00000000000000E+00   0.00000000000000E+00
      4.35492995397236E-35  -4.35492995397236E-35   0.00000000000000E+00  -7.69686015271398E-15
      1.74861036724280E-01
      1.74861036724280E-01   1.74861036724280E-01   0.00000000000000E+00   0.00000000000000E+00   1.60846016769214E-16
      1.31330568094715E-15   1.47415169771636E-15   3.40333591835070E-15   0.00000000000000E+00   0.00000000000000E+00
      0.00000000000000E+00   0.00000000000000E+00  -4.37963365920758E-16  -1.03618833179561E-15  -1.47415169771636E-15
      4.35806828424091E-15  -8.00000000000000E+00  -8.00000000000000E+00   0.00000000000000E+00   0.00000000000000E+00
      4.37098678490010E-35  -4.37098678490010E-35   0.00000000000000E+00  -7.76140420259161E-15
      2.58355235339479E-01
      2.58355235339479E-01   2.58355235339479E-01   0.00000000000000E+00   0.00000000000000E+00   5.01845555410445E-15
      2.82801788215624E-14   3.32986343756669E-14   3.45561097269096E-15   0.00000000000000E+00   0.00000000000000E+00
      0.00000000000000E+00   0.00000000000000E+00  -6.66505137842398E-15  -2.66335829972429E-14  -3.32986343756669E-14
      4.39659773726915E-15  -8.00000000000000E+00  -8.00000000000000E+00   0.00000000000000E+00   0.00000000000000E+00
      4.35469886473576E-35  -4.35469886473576E-35   0.00000000000000E+00  -7.85220870996010E-15
      2.83355235339479E-01
      2.83355235339479E-01   2.83355235339479E-01   0.00000000000000E+00   0.00000000000000E+00   1.32068586909671E-14
      7.17688404863975E-14   8.49756991773646E-14   3.47135604429499E-15   0.00000000000000E+00   0.00000000000000E+00
      0.00000000000000E+00   0.00000000000000E+00  -1.60246249233637E-14  -6.89510742540009E-14  -8.49756991773647E-14
      4.40804433176802E-15  -8.00000000000000E+00  -8.00000000000000E+00   0.00000000000000E+00   0.00000000000000E+00
      4.34775017897252E-35  -4.34775017897252E-35   0.00000000000000E+00  -7.87940037606302E-15
      3.01105235339479E-01
      3.01105235339479E-01   3.01105235339479E-01   0.00000000000000E+00   0.00000000000000E+00   2.62220825149299E-14
      1.39449524623934E-13   1.65671607138864E-13   3.48256534267515E-15   0.00000000000000E+00   0.00000000000000E+00
      0.00000000000000E+00   0.00000000000000E+00  -3.03578642933559E-14  -1.35313742845508E-13  -1.65671607138864E-13
      4.41614188332351E-15  -8.00000000000000E+00  -8.00000000000000E+00   0.00000000000000E+00   0.00000000000000E+00
      4.35713437443929E-35  -4.35713437443929E-35   0.00000000000000E+00  -7.89870722599867E-15
      3.26546902006145E-01
      3.26546902006145E-01   3.26546902006145E-01   0.00000000000000E+00   0.00000000000000E+00   7.00837094479088E-14
      3.62810310946568E-13   4.32894020394477E-13   3.49868021608428E-15   0.00000000000000E+00   0.00000000000000E+00
      0.00000000000000E+00   0.00000000000000E+00  -7.72818840130692E-14  -3.55612136381408E-13  -4.32894020394477E-13
      4.42770125393715E-15  -8.00000000000000E+00  -8.00000000000000E+00   0.00000000000000E+00   0.00000000000000E+00
      4.34588176173050E-35  -4.34588176173050E-35   0.00000000000000E+00  -7.92638147002145E-15
      3.44610485339479E-01
      3.44610485339479E-01   3.44610485339479E-01   0.00000000000000E+00   0.00000000000000E+00   1.40861145113427E-13
      7.16667753808054E-13   8.57528898921480E-13   3.51015950591073E-15   0.00000000000000E+00   0.00000000000000E+00
      0.00000000000000E+00   0.00000000000000E+00  -1.51566535284305E-13  -7.05962363637175E-13  -8.57528898921481E-13
      4.43587144335467E-15  -8.00000000000000E+00  -8.00000000000000E+00   0.00000000000000E+00   0.00000000000000E+00
      4.34621446901718E-35  -4.34621446901718E-35   0.00000000000000E+00  -7.94603094926541E-15
      3.57435629506145E-01
      3.57435629506145E-01   3.57435629506145E-01   0.00000000000000E+00   0.00000000000000E+00   2.31231857222003E-13
      1.16329344752449E-12   1.39452530474649E-12   3.51833055237865E-15   0.00000000000000E+00   0.00000000000000E+00
      0.00000000000000E+00   0.00000000000000E+00  -2.45450497617153E-13  -1.14907480712934E-12  -1.39452530474649E-12
      4.44165190413441E-15  -8.00000000000000E+00  -8.00000000000000E+00   0.00000000000000E+00   0.00000000000000E+00
      4.34866879197971E-35  -4.34866879197971E-35   0.00000000000000E+00  -7.95998245651306E-15
      3.75818336145034E-01
      3.75818336145034E-01   3.75818336145034E-01   0.00000000000000E+00   0.00000000000000E+00   4.70524396178242E-13
      2.32950275057707E-12   2.80002714675531E-12   3.53007497520015E-15   0.00000000000000E+00   0.00000000000000E+00
      0.00000000000000E+00   0.00000000000000E+00  -4.91949147290592E-13  -2.30807799946472E-12  -2.80002714675531E-12
      4.44990517233396E-15  -8.00000000000000E+00  -8.00000000000000E+00   0.00000000000000E+00   0.00000000000000E+00
      4.33932882587450E-35  -4.33932882587450E-35   0.00000000000000E+00  -7.97998014753417E-15
      4.01676676817071E-01
      4.01676676817071E-01   4.01676676817071E-01   0.00000000000000E+00   0.00000000000000E+00   1.27814391643004E-12
      6.18994310123923E-12   7.46808701766927E-12   3.54666731774665E-15   0.00000000000000E+00   0.00000000000000E+00
      0.00000000000000E+00   0.00000000000000E+00  -1.31655805163487E-12  -6.15152896603439E-12  -7.46808701766927E-12
      4.46144392507567E-15  -8.00000000000000E+00  -8.00000000000000E+00   0.00000000000000E+00   0.00000000000000E+00
      4.33860026261404E-35  -4.33860026261404E-35   0.00000000000000E+00  -8.00811124282229E-15
      4.19863709756404E-01
      4.19863709756404E-01   4.19863709756404E-01   0.00000000000000E+00   0.00000000000000E+00   2.58116689667228E-12
      1.23067605849037E-11   1.48879274815760E-11   3.55839378778380E-15   0.00000000000000E+00   0.00000000000000E+00
      0.00000000000000E+00   0.00000000000000E+00  -2.63941556682844E-12  -1.22485119147475E-11  -1.48879274815760E-11
      4.46950364751458E-15  -8.00000000000000E+00  -8.00000000000000E+00   0.00000000000000E+00   0.00000000000000E+00
      4.35939414025261E-35  -4.35939414025261E-35   0.00000000000000E+00  -8.02789743529837E-15
      4.45446802757732E-01
      4.45446802757732E-01   4.45446802757732E-01   0.00000000000000E+00   0.00000000000000E+00   6.93689541240065E-12
      3.23330186532002E-11   3.92699140656009E-11   3.57497990045331E-15   0.00000000000000E+00   0.00000000000000E+00
      0.00000000000000E+00   0.00000000000000E+00  -7.04245451792250E-12  -3.22274595476784E-11  -3.92699140656009E-11
      4.48075090504501E-15  -8.00000000000000E+00  -8.00000000000000E+00   0.00000000000000E+00   0.00000000000000E+00
      4.34334417663212E-35  -4.34334417663212E-35   0.00000000000000E+00  -8.05573080549830E-15
      4.62075813208595E-01
      4.62075813208595E-01   4.62075813208595E-01   0.00000000000000E+00   0.00000000000000E+00   1.31895061172121E-11
      6.05373879498733E-11   7.37268940670854E-11   3.58582578235162E-15   0.00000000000000E+00   0.00000000000000E+00
      0.00000000000000E+00   0.00000000000000E+00  -1.33458464155395E-11  -6.03810476515460E-11  -7.37268940670855E-11
      4.48799710582577E-15  -8.00000000000000E+00  -8.00000000000000E+00   0.00000000000000E+00   0.00000000000000E+00
      4.36284120434076E-35  -4.36284120434076E-35   0.00000000000000E+00  -8.07382288817741E-15
      4.73882410628708E-01
      4.73882410628708E-01   4.73882410628708E-01   0.00000000000000E+00   0.00000000000000E+00   2.08139881158997E-11
      9.44550821147057E-11   1.15269070230605E-10   3.59356146626002E-15   0.00000000000000E+00   0.00000000000000E+00
      0.00000000000000E+00   0.00000000000000E+00  -2.10213084320024E-11  -9.42477617986030E-11  -1.15269070230605E-10
      4.49310692109610E-15  -8.00000000000000E+00  -8.00000000000000E+00   0.00000000000000E+00   0.00000000000000E+00
      4.35524766534934E-35  -4.35524766534934E-35   0.00000000000000E+00  -8.08666838735612E-15
      4.90805200264203E-01
      4.90805200264203E-01   4.90805200264203E-01   0.00000000000000E+00   0.00000000000000E+00   4.00241342903057E-11
      1.78579751573743E-10   2.18603885864048E-10   3.60470603071954E-15   0.00000000000000E+00   0.00000000000000E+00
      0.00000000000000E+00   0.00000000000000E+00  -4.03365052586994E-11  -1.78267380605349E-10  -2.18603885864049E-10
      4.50037428881909E-15  -8.00000000000000E+00  -8.00000000000000E+00   0.00000000000000E+00   0.00000000000000E+00
      4.38690143517671E-35  -4.38690143517671E-35   0.00000000000000E+00  -8.10508031953863E-15
      5.02820380905405E-01
      5.02820380905405E-01   5.02820380905405E-01   0.00000000000000E+00   0.00000000000000E+00   6.36684926041751E-11
      2.80525908465019E-10   3.44194401069194E-10   3.61266364997652E-15   0.00000000000000E+00   0.00000000000000E+00
      0.00000000000000E+00   0.00000000000000E+00  -6.40881724062161E-11  -2.80106228662978E-10  -3.44194401069195E-10
      4.50548906150385E-15  -8.00000000000000E+00  -8.00000000000000E+00   0.00000000000000E+00   0.00000000000000E+00
      4.39121726859811E-35  -4.39121726859811E-35   0.00000000000000E+00  -8.11815271148039E-15
      5.20042139824460E-01
      5.20042139824460E-01   5.20042139824460E-01   0.00000000000000E+00   0.00000000000000E+00   1.23840161530242E-10
      5.35436318525466E-10   6.59276480055708E-10   3.62414304333546E-15   0.00000000000000E+00   0.00000000000000E+00
      0.00000000000000E+00   0.00000000000000E+00  -1.24485426761294E-10  -5.34791053294415E-10  -6.59276480055709E-10
      4.51274636404147E-15  -8.00000000000000E+00  -8.00000000000000E+00   0.00000000000000E+00   0.00000000000000E+00
      4.37084008525400E-35  -4.37084008525400E-35   0.00000000000000E+00  -8.13688940737694E-15
      5.32154776930863E-01
      5.32154776930863E-01   5.32154776930863E-01   0.00000000000000E+00   0.00000000000000E+00   1.97721932205147E-10
      8.43050375632384E-10   1.04077230783753E-09   3.63227479713562E-15   0.00000000000000E+00   0.00000000000000E+00
      0.00000000000000E+00   0.00000000000000E+00  -1.98599903928953E-10  -8.42172403908579E-10  -1.04077230783753E-09
      4.51779219886933E-15  -8.00000000000000E+00  -8.00000000000000E+00   0.00000000000000E+00   0.00000000000000E+00
      4.37669241027315E-35  -4.37669241027315E-35   0.00000000000000E+00  -8.15006699600493E-15
      5.49516223450040E-01
      5.49516223450040E-01   5.49516223450040E-01   0.00000000000000E+00   0.00000000000000E+00   3.86584715233837E-10
      1.61418996874336E-09   2.00077468397720E-09   3.64402498336804E-15   0.00000000000000E+00   0.00000000000000E+00
      0.00000000000000E+00   0.00000000000000E+00  -3.87961762668133E-10  -1.61281292130906E-09  -2.00077468397720E-09
      4.52492839616624E-15  -8.00000000000000E+00  -8.00000000000000E+00   0.00000000000000E+00   0.00000000000000E+00
      4.38123109270738E-35  -4.38123109270738E-35   0.00000000000000E+00  -8.16895337953425E-15
      5.73937991553682E-01
      5.73937991553682E-01   5.73937991553682E-01   0.00000000000000E+00   0.00000000000000E+00   9.92373110599303E-10
      4.01538651534054E-09   5.00775962593984E-09   3.66077221315632E-15   0.00000000000000E+00   0.00000000000000E+00
      0.00000000000000E+00   0.00000000000000E+00  -9.95017262441536E-10  -4.01274236349831E-09  -5.00775962593984E-09
      4.53474216959893E-15  -8.00000000000000E+00  -8.00000000000000E+00   0.00000000000000E+00   0.00000000000000E+00
      4.39008209499545E-35  -4.39008209499545E-35   0.00000000000000E+00  -8.19551438275523E-15
      5.91114635119910E-01
      5.91114635119910E-01   5.91114635119910E-01   0.00000000000000E+00   0.00000000000000E+00   1.92496233608247E-09
      7.60712040658601E-09   9.53208274266848E-09   3.67272957161372E-15   0.00000000000000E+00   0.00000000000000E+00
      0.00000000000000E+00   0.00000000000000E+00  -1.92920787048198E-09  -7.60287487218650E-09  -9.53208274266848E-09
      4.54145795652673E-15  -8.00000000000000E+00  -8.00000000000000E+00   0.00000000000000E+00   0.00000000000000E+00
      4.37421019287411E-35  -4.37421019287411E-35   0.00000000000000E+00  -8.21418752814045E-15
      6.03195541094824E-01
      6.03195541094824E-01   6.03195541094824E-01   0.00000000000000E+00   0.00000000000000E+00   3.06633981835524E-09
      1.19082233750421E-08   1.49745631933973E-08   3.68123985395303E-15   0.00000000000000E+00   0.00000000000000E+00
      0.00000000000000E+00   0.00000000000000E+00  -3.07230745753266E-09  -1.19022557358646E-08  -1.49745631933973E-08
      4.54607385570981E-15  -8.00000000000000E+00  -8.00000000000000E+00   0.00000000000000E+00   0.00000000000000E+00
      4.37511090494821E-35  -4.37511090494821E-35   0.00000000000000E+00  -8.22731370966286E-15
      6.20511506325534E-01
      6.20511506325534E-01   6.20511506325534E-01   0.00000000000000E+00   0.00000000000000E+00   5.97039195704478E-09
      2.25819381485932E-08   2.85523301056380E-08   3.69359632009398E-15   0.00000000000000E+00   0.00000000000000E+00
      0.00000000000000E+00   0.00000000000000E+00  -5.98021434660699E-09  -2.25721157590310E-08  -2.85523301056380E-08
      4.55251369577075E-15  -8.00000000000000E+00  -8.00000000000000E+00   0.00000000000000E+00   0.00000000000000E+00
      4.38888708871812E-35  -4.38888708871812E-35   0.00000000000000E+00  -8.24611001586472E-15
      6.32690401871133E-01
      6.32690401871133E-01   6.32690401871133E-01   0.00000000000000E+00   0.00000000000000E+00   9.52918378888739E-09
      3.53345123680918E-08   4.48636961569792E-08   3.70240550263366E-15   0.00000000000000E+00   0.00000000000000E+00
      0.00000000000000E+00   0.00000000000000E+00  -9.54321955925869E-09  -3.53204765977204E-08  -4.48636961569791E-08
      4.55690423233715E-15  -8.00000000000000E+00  -8.00000000000000E+00   0.00000000000000E+00   0.00000000000000E+00
      4.38722483581360E-35  -4.38722483581360E-35   0.00000000000000E+00  -8.25930973497079E-15
      6.50146818819825E-01
      6.50146818819825E-01   6.50146818819825E-01   0.00000000000000E+00   0.00000000000000E+00   1.85760208572943E-08
      6.67780379812855E-08   8.53540588385798E-08   3.71520576932107E-15   0.00000000000000E+00   0.00000000000000E+00
      0.00000000000000E+00   0.00000000000000E+00  -1.85995932505017E-08  -6.67544655880781E-08  -8.53540588385798E-08
      4.56297346366966E-15  -8.00000000000000E+00  -8.00000000000000E+00   0.00000000000000E+00   0.00000000000000E+00
      4.39263255776333E-35  -4.39263255776333E-35   0.00000000000000E+00  -8.27817923299071E-15
      6.74702178660986E-01
      6.74702178660986E-01   6.74702178660986E-01   0.00000000000000E+00   0.00000000000000E+00   4.70576781844079E-08
      1.60637986908105E-07   2.07695665092513E-07   3.73352244786232E-15   0.00000000000000E+00   0.00000000000000E+00
      0.00000000000000E+00   0.00000000000000E+00  -4.71067386284465E-08  -1.60588926464066E-07  -2.07695665092513E-07
      4.57101395027612E-15  -8.00000000000000E+00  -8.00000000000000E+00   0.00000000000000E+00   0.00000000000000E+00
      4.39477701198299E-35  -4.39477701198299E-35   0.00000000000000E+00  -8.30453639813844E-15
      6.91481674552445E-01
      6.91481674552445E-01   6.91481674552445E-01   0.00000000000000E+00   0.00000000000000E+00   8.78105738824794E-08
      2.86815265334720E-07   3.74625839217199E-07   3.74616815479650E-15   0.00000000000000E+00   0.00000000000000E+00
      0.00000000000000E+00   0.00000000000000E+00  -8.78908539483867E-08  -2.86734985268813E-07  -3.74625839217200E-07
      4.57614884592817E-15  -8.00000000000000E+00  -8.00000000000000E+00   0.00000000000000E+00   0.00000000000000E+00
      4.39558135341717E-35  -4.39558135341717E-35   0.00000000000000E+00  -8.32231700072467E-15
      7.03395116635382E-01
      7.03395116635382E-01   7.03395116635382E-01   0.00000000000000E+00   0.00000000000000E+00   1.35532093711225E-07
      4.26380117705347E-07   5.61912211416572E-07   3.75514057712846E-15   0.00000000000000E+00   0.00000000000000E+00
      0.00000000000000E+00   0.00000000000000E+00  -1.35644808357232E-07  -4.26267403059340E-07  -5.61912211416572E-07
      4.57961636794134E-15  -8.00000000000000E+00  -8.00000000000000E+00   0.00000000000000E+00   0.00000000000000E+00
      4.39027071629231E-35  -4.39027071629231E-35   0.00000000000000E+00  -8.33475694506979E-15
      7.20471050287590E-01
      7.20471050287590E-01   7.20471050287590E-01   0.00000000000000E+00   0.00000000000000E+00   2.47926502940173E-07
      7.30924353650755E-07   9.78850856590928E-07   3.76785779965061E-15   0.00000000000000E+00   0.00000000000000E+00
      0.00000000000000E+00   0.00000000000000E+00  -2.48105660017120E-07  -7.30745196573808E-07  -9.78850856590928E-07
      4.58434671601954E-15  -8.00000000000000E+00  -8.00000000000000E+00   0.00000000000000E+00   0.00000000000000E+00
      4.37681972486257E-35  -4.37681972486257E-35   0.00000000000000E+00  -8.35220451567015E-15
      7.32481123622977E-01
      7.32481123622977E-01   7.32481123622977E-01   0.00000000000000E+00   0.00000000000000E+00   3.72911693533361E-07
      1.04134907213830E-06   1.41426076567166E-06   3.77659910631112E-15   0.00000000000000E+00   0.00000000000000E+00
      0.00000000000000E+00   0.00000000000000E+00  -3.73154824863699E-07  -1.04110594080797E-06  -1.41426076567166E-06
      4.58752714341474E-15  -8.00000000000000E+00  -8.00000000000000E+00   0.00000000000000E+00   0.00000000000000E+00
      4.37521352671767E-35  -4.37521352671767E-35   0.00000000000000E+00  -8.36412624972589E-15
      7.49695562070365E-01
      7.49695562070365E-01   7.49695562070365E-01   0.00000000000000E+00   0.00000000000000E+00   6.49854678228156E-07
      1.65965769724750E-06   2.30951237547565E-06   3.78867238303684E-15   0.00000000000000E+00   0.00000000000000E+00
      0.00000000000000E+00   0.00000000000000E+00  -6.50218495619918E-07  -1.65929387985574E-06  -2.30951237547565E-06
      4.59192206174350E-15  -8.00000000000000E+00  -8.00000000000000E+00   0.00000000000000E+00   0.00000000000000E+00
      4.40396233210827E-35  -4.40396233210827E-35   0.00000000000000E+00  -8.38059444478034E-15
      7.61803050445028E-01
      7.61803050445028E-01   7.61803050445028E-01   0.00000000000000E+00   0.00000000000000E+00   9.37630582808840E-07
      2.23460805459059E-06   3.17223863739943E-06   3.79676141499384E-15   0.00000000000000E+00   0.00000000000000E+00
      0.00000000000000E+00   0.00000000000000E+00  -9.38101243018423E-07  -2.23413739438101E-06  -3.17223863739943E-06
      4.59492704073728E-15  -8.00000000000000E+00  -8.00000000000000E+00   0.00000000000000E+00   0.00000000000000E+00
      4.39733259061080E-35  -4.39733259061080E-35   0.00000000000000E+00  -8.39168845573114E-15
      7.70480083780203E-01
      7.70480083780203E-01   7.70480083780203E-01   0.00000000000000E+00   0.00000000000000E+00   1.20332396224082E-06
      2.72376304055028E-06   3.92708700279110E-06   3.80233027635637E-15   0.00000000000000E+00   0.00000000000000E+00
      0.00000000000000E+00   0.00000000000000E+00  -1.20388248926531E-06  -2.72320451352579E-06  -3.92708700279110E-06
      4.59704817094089E-15  -8.00000000000000E+00  -8.00000000000000E+00   0.00000000000000E+00   0.00000000000000E+00
      4.39658614519065E-35  -4.39658614519065E-35   0.00000000000000E+00  -8.39937844729725E-15
      7.82917164893953E-01
      7.82917164893953E-01   7.82917164893953E-01   0.00000000000000E+00   0.00000000000000E+00   1.68652454259076E-06
      3.54170038299007E-06   5.22822492558083E-06   3.80996816736260E-15   0.00000000000000E+00   0.00000000000000E+00
      0.00000000000000E+00   0.00000000000000E+00  -1.68722491260540E-06  -3.54100001297543E-06  -5.22822492558082E-06
      4.60005148558642E-15  -8.00000000000000E+00  -8.00000000000000E+00   0.00000000000000E+00   0.00000000000000E+00
      4.38356440077435E-35  -4.38356440077435E-35   0.00000000000000E+00  -8.41001965294902E-15
      7.85124746791644E-01
      7.85124746791644E-01   7.85124746791644E-01   0.00000000000000E+00   0.00000000000000E+00   1.78621880675396E-06
      3.70149494368494E-06   5.48771375043890E-06   3.81128148096786E-15   0.00000000000000E+00   0.00000000000000E+00
      0.00000000000000E+00   0.00000000000000E+00  -1.78694622555714E-06  -3.70076752488176E-06  -5.48771375043890E-06
      4.60058066789503E-15  -8.00000000000000E+00  -8.00000000000000E+00   0.00000000000000E+00   0.00000000000000E+00
      4.38985836197240E-35  -4.38985836197240E-35   0.00000000000000E+00  -8.41186214886291E-15
      7.88318381936970E-01
      7.88318381936970E-01   7.88318381936970E-01   0.00000000000000E+00   0.00000000000000E+00   1.93838725744510E-06
      3.94051012300549E-06   5.87889738045059E-06   3.81315900181850E-15   0.00000000000000E+00   0.00000000000000E+00
      0.00000000000000E+00   0.00000000000000E+00  -1.93915476063418E-06  -3.93974261981640E-06  -5.87889738045058E-06
      4.60134433465906E-15  -8.00000000000000E+00  -8.00000000000000E+00   0.00000000000000E+00   0.00000000000000E+00
      4.38470701204427E-35  -4.38470701204427E-35   0.00000000000000E+00  -8.41450333647754E-15
      7.90628444692089E-01
      7.90628444692089E-01   7.90628444692089E-01   0.00000000000000E+00   0.00000000000000E+00   2.05446655593327E-06
      4.11918748571335E-06   6.17365404164662E-06   3.81450068087652E-15   0.00000000000000E+00   0.00000000000000E+00
      0.00000000000000E+00   0.00000000000000E+00  -2.05526374035374E-06  -4.11839030129287E-06  -6.17365404164661E-06
      4.60189538024126E-15  -8.00000000000000E+00  -8.00000000000000E+00   0.00000000000000E+00   0.00000000000000E+00
      4.38238305887922E-35  -4.38238305887922E-35   0.00000000000000E+00  -8.41639606111779E-15
      7.93970335477828E-01
      7.93970335477828E-01   7.93970335477828E-01   0.00000000000000E+00   0.00000000000000E+00   2.23158020289214E-06
      4.38627923979310E-06   6.61785944268524E-06   3.81641752744641E-15   0.00000000000000E+00   0.00000000000000E+00
      0.00000000000000E+00   0.00000000000000E+00  -2.23242131756636E-06  -4.38543812511888E-06  -6.61785944268524E-06
      4.60269064189153E-15  -8.00000000000000E+00  -8.00000000000000E+00   0.00000000000000E+00   0.00000000000000E+00
      4.38188297705746E-35  -4.38188297705746E-35   0.00000000000000E+00  -8.41910816933794E-15
      7.96387636479513E-01
      7.96387636479513E-01   7.96387636479513E-01   0.00000000000000E+00   0.00000000000000E+00   2.36662810650211E-06
      4.58581583763363E-06   6.95244394413574E-06   3.81778645564054E-15   0.00000000000000E+00   0.00000000000000E+00
      0.00000000000000E+00   0.00000000000000E+00  -2.36750170778288E-06  -4.58494223635287E-06  -6.95244394413574E-06
      4.60326450860735E-15  -8.00000000000000E+00  -8.00000000000000E+00   0.00000000000000E+00   0.00000000000000E+00
      4.37975128822096E-35  -4.37975128822096E-35   0.00000000000000E+00  -8.42105096424788E-15
      7.99884665261950E-01
      7.99884665261950E-01   7.99884665261950E-01   0.00000000000000E+00   0.00000000000000E+00   2.57257074830092E-06
      4.88388621927592E-06   7.45645696757685E-06   3.81974105133491E-15   0.00000000000000E+00   0.00000000000000E+00
      0.00000000000000E+00   0.00000000000000E+00  -2.57349236638062E-06  -4.88296460119623E-06  -7.45645696757685E-06
      4.60409272067795E-15  -8.00000000000000E+00  -8.00000000000000E+00   0.00000000000000E+00   0.00000000000000E+00
      4.38392808658166E-35  -4.38392808658166E-35   0.00000000000000E+00  -8.42383377201286E-15
      8.02414182747913E-01
      8.02414182747913E-01   8.02414182747913E-01   0.00000000000000E+00   0.00000000000000E+00   2.72950103837879E-06
      5.10641100763105E-06   7.83591204600984E-06   3.82113612096744E-15   0.00000000000000E+00   0.00000000000000E+00
      0.00000000000000E+00   0.00000000000000E+00  -2.73045811521587E-06  -5.10545393079396E-06  -7.83591204600983E-06
      4.60469036514113E-15  -8.00000000000000E+00  -8.00000000000000E+00   0.00000000000000E+00   0.00000000000000E+00
      4.38022251425665E-35  -4.38022251425665E-35   0.00000000000000E+00  -8.42582648610859E-15
      8.06073551377605E-01
      8.06073551377605E-01   8.06073551377605E-01   0.00000000000000E+00   0.00000000000000E+00   2.96863646738703E-06
      5.43858035922352E-06   8.40721682661056E-06   3.82312691606177E-15   0.00000000000000E+00   0.00000000000000E+00
      0.00000000000000E+00   0.00000000000000E+00  -2.96964587744939E-06  -5.43757094916116E-06  -8.40721682661056E-06
      4.60555287742833E-15  -8.00000000000000E+00  -8.00000000000000E+00   0.00000000000000E+00   0.00000000000000E+00
      4.38493886873268E-35  -4.38493886873268E-35   0.00000000000000E+00  -8.42867979349013E-15
      8.08720494686416E-01
      8.08720494686416E-01   8.08720494686416E-01   0.00000000000000E+00   0.00000000000000E+00   3.15071080465745E-06
      5.68637794676518E-06   8.83708875142263E-06   3.82454704817371E-15   0.00000000000000E+00   0.00000000000000E+00
      0.00000000000000E+00   0.00000000000000E+00  -3.15175880334410E-06  -5.68532994807854E-06  -8.83708875142264E-06
      4.60617524886300E-15  -8.00000000000000E+00  -8.00000000000000E+00   0.00000000000000E+00   0.00000000000000E+00
      4.38806369193513E-35  -4.38806369193513E-35   0.00000000000000E+00  -8.43072229703668E-15
      8.12549739339830E-01
      8.12549739339830E-01   8.12549739339830E-01   0.00000000000000E+00   0.00000000000000E+00   3.42790626508872E-06