DF-ISE text

Info {
  version   = 1.0
  type      = xyplot
  datasets  = [
    "time"
    "anode OuterVoltage" "anode InnerVoltage" "anode QuasiFermiPotential" "anode DisplacementCurrent" "anode eCurrent"
    "anode hCurrent" "anode TotalCurrent" "anode Charge" "cathode OuterVoltage" "cathode InnerVoltage"
    "cathode QuasiFermiPotential" "cathode DisplacementCurrent" "cathode eCurrent" "cathode hCurrent" "cathode TotalCurrent"
    "cathode Charge" "gate OuterVoltage" "gate InnerVoltage" "gate QuasiFermiPotential" "gate DisplacementCurrent"
    "gate eCurrent" "gate hCurrent" "gate TotalCurrent" "gate Charge" ]
  functions = [
    Time
    OuterVoltage InnerVoltage QuasiFermiPotential DisplacementCurrent eCurrent
    hCurrent TotalCurrent Charge OuterVoltage InnerVoltage
    QuasiFermiPotential DisplacementCurrent eCurrent hCurrent TotalCurrent
    Charge OuterVoltage InnerVoltage QuasiFermiPotential DisplacementCurrent
    eCurrent hCurrent TotalCurrent Charge ]
}

Data {
      0.00000000000000E+00
      0.00000000000000E+00   0.00000000000000E+00   0.00000000000000E+00   0.00000000000000E+00   1.72417791777175E-24
     -5.82520998129974E-26   1.66592581795875E-24  -7.18232331610844E-16   0.00000000000000E+00   0.00000000000000E+00
      0.00000000000000E+00   0.00000000000000E+00  -1.72417792874661E-24   5.82521107878580E-26  -1.66592581795875E-24
      3.69049933458662E-16   0.00000000000000E+00   0.00000000000000E+00   0.00000000000000E+00   0.00000000000000E+00
      2.55138796654127E-35  -2.55138796654127E-35   0.00000000000000E+00   3.49182398152179E-16
      0.00000000000000E+00
      0.00000000000000E+00   0.00000000000000E+00   0.00000000000000E+00   0.00000000000000E+00   1.41172211064965E-22
      4.79589901211030E-27   1.41177006963977E-22  -7.18232331608701E-16   0.00000000000000E+00   0.00000000000000E+00
      0.00000000000000E+00   0.00000000000000E+00  -1.41172211190852E-22  -4.79577312459995E-27  -1.41177006963977E-22
      3.69049933458607E-16   0.00000000000000E+00   0.00000000000000E+00   0.00000000000000E+00   0.00000000000000E+00
      6.83692724401650E-35  -6.83692724401650E-35   0.00000000000000E+00   3.49182398150096E-16
      1.00000000000000E-01
      0.00000000000000E+00   0.00000000000000E+00   0.00000000000000E+00   0.00000000000000E+00   2.93280716613042E-17
      8.62518757163915E-28   2.93280716621667E-17  -9.53863137223235E-16   0.00000000000000E+00   0.00000000000000E+00
      0.00000000000000E+00   0.00000000000000E+00  -2.93280716613043E-17  -8.62404212308292E-28  -2.93280716621667E-17
      5.50788983839792E-18   8.00000000000000E-01   8.00000000000000E-01   0.00000000000000E+00   0.00000000000000E+00
      4.48416543541127E-35  -4.48416543541127E-35   0.00000000000000E+00   9.48355247384838E-16
      2.00000000000000E-01
      0.00000000000000E+00   0.00000000000000E+00   0.00000000000000E+00   0.00000000000000E+00  -2.60613004099954E-17
     -2.80643450566777E-26  -2.60613004380597E-17  -1.33735046615961E-15   0.00000000000000E+00   0.00000000000000E+00
      0.00000000000000E+00   0.00000000000000E+00   2.60613004384676E-17  -4.07875388528961E-28   2.60613004380597E-17
     -4.32120631194832E-16   1.60000000000000E+00   1.60000000000000E+00   0.00000000000000E+00   0.00000000000000E+00
     -1.65540965772416E-33   1.65540965772416E-33   0.00000000000000E+00   1.76947109735444E-15
      3.00000000000000E-01
      0.00000000000000E+00   0.00000000000000E+00   0.00000000000000E+00   0.00000000000000E+00  -9.47769549441248E-16
     -2.18526975620923E-28  -9.47769549441466E-16  -1.73353795673923E-15   0.00000000000000E+00   0.00000000000000E+00
      0.00000000000000E+00   0.00000000000000E+00   9.47769549441248E-16   2.18519268259632E-28   9.47769549441466E-16
     -8.85943967589419E-16   2.40000000000000E+00   2.40000000000000E+00   0.00000000000000E+00   0.00000000000000E+00
      5.92768467357665E-27  -5.92768467357665E-27   0.00000000000000E+00   2.61948192432865E-15
      4.00000000000000E-01
      0.00000000000000E+00   0.00000000000000E+00   0.00000000000000E+00   0.00000000000000E+00  -1.26209679007925E-15
     -6.80660305326468E-31  -1.26209679007925E-15  -2.12739650338487E-15   0.00000000000000E+00   0.00000000000000E+00
      0.00000000000000E+00   0.00000000000000E+00   1.26209679007925E-15   7.47257634058459E-31   1.26209679007925E-15
     -1.34935071027512E-15   3.20000000000000E+00   3.20000000000000E+00   0.00000000000000E+00   0.00000000000000E+00
      5.84356496163288E-27  -5.84356496163288E-27   0.00000000000000E+00   3.47674721366000E-15
      5.00000000000000E-01
      0.00000000000000E+00   0.00000000000000E+00   0.00000000000000E+00   0.00000000000000E+00  -9.25777094323410E-16
      2.15266774145743E-28  -9.25777094323195E-16  -2.51776760471287E-15   0.00000000000000E+00   0.00000000000000E+00
      0.00000000000000E+00   0.00000000000000E+00   9.25777094323410E-16  -2.15177848738672E-28   9.25777094323195E-16
     -1.81904628773920E-15   4.00000000000000E+00   4.00000000000000E+00   0.00000000000000E+00   0.00000000000000E+00
      5.70619990697472E-27  -5.70619990697472E-27   0.00000000000000E+00   4.33681389245205E-15
      6.00000000000000E-01
      0.00000000000000E+00   0.00000000000000E+00   0.00000000000000E+00   0.00000000000000E+00  -9.50500521162614E-16
     -1.03850793179756E-28  -9.50500521162718E-16  -2.90491104321964E-15   0.00000000000000E+00   0.00000000000000E+00
      0.00000000000000E+00   0.00000000000000E+00   9.50500521162614E-16   1.03938275244696E-28   9.50500521162718E-16
     -2.29302559289785E-15   4.80000000000000E+00   4.80000000000000E+00   0.00000000000000E+00   0.00000000000000E+00
      5.48007002334724E-27  -5.48007002334724E-27   0.00000000000000E+00   5.19793663611747E-15
      7.00000000000000E-01
      0.00000000000000E+00   0.00000000000000E+00   0.00000000000000E+00   0.00000000000000E+00  -7.46224051430280E-17
      3.02540248169572E-28  -7.46224051427255E-17  -3.28927126576575E-15   0.00000000000000E+00   0.00000000000000E+00
      0.00000000000000E+00   0.00000000000000E+00   7.46224051430280E-17  -3.02456398880332E-28   7.46224051427255E-17
     -2.76998573754293E-15   5.60000000000000E+00   5.60000000000000E+00   0.00000000000000E+00   0.00000000000000E+00
      5.11536365075154E-27  -5.11536365075154E-27   0.00000000000000E+00   6.05925700330869E-15
      8.00000000000000E-01
      0.00000000000000E+00   0.00000000000000E+00   0.00000000000000E+00   0.00000000000000E+00  -4.29671845710597E-16
     -1.30641944159694E-28  -4.29671845710727E-16  -3.67125894688997E-15   0.00000000000000E+00   0.00000000000000E+00
      0.00000000000000E+00   0.00000000000000E+00   4.29671845710596E-16   1.30757135124199E-28   4.29671845710727E-16
     -3.24904860016478E-15   6.40000000000000E+00   6.40000000000000E+00   0.00000000000000E+00   0.00000000000000E+00
      2.94734350701393E-25  -2.94734350701393E-25   0.00000000000000E+00   6.92030754705473E-15
      9.00000000000000E-01
      0.00000000000000E+00   0.00000000000000E+00   0.00000000000000E+00   0.00000000000000E+00  -2.05669861706405E-16
      1.40238494387539E-28  -2.05669861706264E-16  -4.05120339884761E-15   0.00000000000000E+00   0.00000000000000E+00
      0.00000000000000E+00   0.00000000000000E+00   2.05669861706405E-16  -1.40142545552468E-28   2.05669861706264E-16
     -3.72959356423334E-15   7.20000000000000E+00   7.20000000000000E+00   0.00000000000000E+00   0.00000000000000E+00
      3.48318399887975E-27  -3.48318399887975E-27   0.00000000000000E+00   7.78079696308096E-15
      1.00000000000000E+00
      0.00000000000000E+00   0.00000000000000E+00   0.00000000000000E+00   0.00000000000000E+00  -1.32301386676991E-16
     -4.04945230276871E-28  -1.32301386677396E-16  -4.42934320846584E-15   0.00000000000000E+00   0.00000000000000E+00
      0.00000000000000E+00   0.00000000000000E+00   1.32301386676991E-16   4.05045377413211E-28   1.32301386677396E-16
     -4.21114869461746E-15   8.00000000000000E+00   8.00000000000000E+00   0.00000000000000E+00   0.00000000000000E+00
      9.98733972852923E-28  -9.98733972852923E-28   0.00000000000000E+00   8.64049190308328E-15
}
