DF-ISE text

Info {
  version   = 1.0
  type      = xyplot
  datasets  = [
    "time"
    "Left OuterVoltage" "Left InnerVoltage" "Left QuasiFermiPotential" "Left DisplacementCurrent" "Left eCurrent"
    "Left hCurrent" "Left TotalCurrent" "Left Charge" "Right OuterVoltage" "Right InnerVoltage"
    "Right QuasiFermiPotential" "Right DisplacementCurrent" "Right eCurrent" "Right hCurrent" "Right TotalCurrent"
    "Right Charge" ]
  functions = [
    Time
    OuterVoltage InnerVoltage QuasiFermiPotential DisplacementCurrent eCurrent
    hCurrent TotalCurrent Charge OuterVoltage InnerVoltage
    QuasiFermiPotential DisplacementCurrent eCurrent hCurrent TotalCurrent
    Charge ]
}

Data {
      0.00000000000000E+00
      0.00000000000000E+00   0.00000000000000E+00   0.00000000000000E+00   0.00000000000000E+00  -9.62660459265264E-27
     -3.47598942274328E-27  -1.31025940153959E-26  -3.25779452214830E-16   0.00000000000000E+00   0.00000000000000E+00
      0.00000000000000E+00   0.00000000000000E+00   9.62662701991977E-27   3.47596699547619E-27   1.31025940153960E-26
      3.25779452214829E-16
      0.00000000000000E+00
      0.00000000000000E+00   0.00000000000000E+00   0.00000000000000E+00   0.00000000000000E+00   5.73585648929871E-26
      2.14352208598390E-26   7.87937857528261E-26  -3.25779451231201E-16   0.00000000000000E+00   0.00000000000000E+00
      0.00000000000000E+00   0.00000000000000E+00  -5.73585438354382E-26  -2.14352419173871E-26  -7.87937857528253E-26
      3.25779451231202E-16
      1.00000000000000E-02
      1.00000000000000E-02   1.00000000000000E-02   0.00000000000000E+00   0.00000000000000E+00   6.25728763214432E-18
      3.73180044705019E-18   9.98908807919451E-18  -3.23222024502217E-16   0.00000000000000E+00   0.00000000000000E+00
      0.00000000000000E+00   0.00000000000000E+00  -7.62685972197920E-18  -2.36222835721537E-18  -9.98908807919457E-18
      3.23222024502214E-16
      2.92000000000000E-02
      2.92000000000000E-02   2.92000000000000E-02   0.00000000000000E+00   0.00000000000000E+00   2.72154379210121E-17
      1.50651355292245E-17   4.22805734502366E-17  -3.18254165353178E-16   0.00000000000000E+00   0.00000000000000E+00
      0.00000000000000E+00   0.00000000000000E+00  -3.18934292808200E-17  -1.03871441694166E-17  -4.22805734502365E-17
      3.18254165353178E-16
      6.60640000000000E-02
      6.60640000000000E-02   6.60640000000000E-02   0.00000000000000E+00   0.00000000000000E+00   1.48896355683681E-16
      7.32650967000866E-17   2.22161452383768E-16  -3.08491719626451E-16   0.00000000000000E+00   0.00000000000000E+00
      0.00000000000000E+00   0.00000000000000E+00  -1.64233485230889E-16  -5.79279671528816E-17  -2.22161452383770E-16
      3.08491719626452E-16
      1.35859840000000E-01
      1.35859840000000E-01   1.35859840000000E-01   0.00000000000000E+00   0.00000000000000E+00   2.29089505908498E-15
      9.85430630794426E-16   3.27632568987941E-15  -2.89106833578823E-16   0.00000000000000E+00   0.00000000000000E+00
      0.00000000000000E+00   0.00000000000000E+00  -2.36942889209680E-15  -9.06896797782628E-16  -3.27632568987943E-15
      2.89106833578822E-16
      2.66145408000000E-01
      2.66145408000000E-01   2.66145408000000E-01   0.00000000000000E+00   0.00000000000000E+00   3.44441976764387E-13
      1.37717123107467E-13   4.82159099871854E-13  -2.48920078090465E-16   0.00000000000000E+00   0.00000000000000E+00
      0.00000000000000E+00   0.00000000000000E+00  -3.45760520065220E-13  -1.36398579806633E-13  -4.82159099871853E-13
      2.48920078090466E-16
      4.66145408000000E-01
      4.66145408000000E-01   4.66145408000000E-01   0.00000000000000E+00   0.00000000000000E+00   7.47963542506382E-10
      2.95114099841999E-10   1.04307764234838E-09  -1.70125574080043E-16   0.00000000000000E+00   0.00000000000000E+00
      0.00000000000000E+00   0.00000000000000E+00  -7.48122706586606E-10  -2.94954935761775E-10  -1.04307764234838E-09
      1.70125574080044E-16
      5.66145408000000E-01
      5.66145408000000E-01   5.66145408000000E-01   0.00000000000000E+00   0.00000000000000E+00   3.39935529145858E-08
      1.33640512118567E-08   4.73576041264426E-08  -1.16223273311834E-16   0.00000000000000E+00   0.00000000000000E+00
      0.00000000000000E+00   0.00000000000000E+00  -3.39969452098802E-08  -1.33606589165618E-08  -4.73576041264419E-08
      1.16223273311834E-16
      7.26145408000000E-01
      7.26145408000000E-01   7.26145408000000E-01   0.00000000000000E+00   0.00000000000000E+00   4.12534321198620E-06
      1.58680036593500E-06   5.71214357792120E-06  -3.91451127759158E-17   0.00000000000000E+00   0.00000000000000E+00
      0.00000000000000E+00   0.00000000000000E+00  -4.12548614934079E-06  -1.58665742858045E-06  -5.71214357792124E-06
      3.91451127759160E-17
      7.76145408000000E-01
      7.76145408000000E-01   7.76145408000000E-01   0.00000000000000E+00   0.00000000000000E+00   8.95266991207965E-06
      3.43477007367663E-06   1.23874399857563E-05  -2.90295574152090E-17   0.00000000000000E+00   0.00000000000000E+00
      0.00000000000000E+00   0.00000000000000E+00  -8.95289509767334E-06  -3.43454488808297E-06  -1.23874399857563E-05
      2.90295574152092E-17
      8.70812074666667E-01
      8.70812074666667E-01   8.70812074666667E-01   0.00000000000000E+00   0.00000000000000E+00   2.37630783690305E-05
      9.16390039137033E-06   3.29269787604008E-05  -1.73910177469259E-17   0.00000000000000E+00   0.00000000000000E+00
      0.00000000000000E+00   0.00000000000000E+00  -2.37634676116791E-05  -9.16351114872140E-06  -3.29269787604005E-05
      1.73910177469257E-17
      9.35406037333333E-01
      9.35406037333333E-01   9.35406037333333E-01   0.00000000000000E+00   0.00000000000000E+00   3.75681162737785E-05
      1.45912825580021E-05   5.21593988317805E-05  -1.21819044460831E-17   0.00000000000000E+00   0.00000000000000E+00
      0.00000000000000E+00   0.00000000000000E+00  -3.75686183776185E-05  -1.45907804541618E-05  -5.21593988317803E-05
      1.21819044460832E-17
      1.00000000000000E+00
      1.00000000000000E+00   1.00000000000000E+00   0.00000000000000E+00   0.00000000000000E+00   5.34791317824488E-05
      2.09437004384389E-05   7.44228322208877E-05  -8.18853079170383E-18   0.00000000000000E+00   0.00000000000000E+00
      0.00000000000000E+00   0.00000000000000E+00  -5.34797430642653E-05  -2.09430891566219E-05  -7.44228322208872E-05
      8.18853079170371E-18
}
