DF-ISE text

Info {
  version   = 1.0
  type      = xyplot
  datasets  = [
    "time"
    "source OuterVoltage" "source InnerVoltage" "source QuasiFermiPotential" "source DisplacementCurrent" "source eCurrent"
    "source hCurrent" "source TotalCurrent" "source Charge" "drain OuterVoltage" "drain InnerVoltage"
    "drain QuasiFermiPotential" "drain DisplacementCurrent" "drain eCurrent" "drain hCurrent" "drain TotalCurrent"
    "drain Charge" "gate OuterVoltage" "gate InnerVoltage" "gate QuasiFermiPotential" "gate DisplacementCurrent"
    "gate eCurrent" "gate hCurrent" "gate TotalCurrent" "gate Charge" "substrate OuterVoltage"
    "substrate InnerVoltage" "substrate QuasiFermiPotential" "substrate DisplacementCurrent" "substrate eCurrent" "substrate hCurrent"
    "substrate TotalCurrent" "substrate Charge" ]
  functions = [
    Time
    OuterVoltage InnerVoltage QuasiFermiPotential DisplacementCurrent eCurrent
    hCurrent TotalCurrent Charge OuterVoltage InnerVoltage
    QuasiFermiPotential DisplacementCurrent eCurrent hCurrent TotalCurrent
    Charge OuterVoltage InnerVoltage QuasiFermiPotential DisplacementCurrent
    eCurrent hCurrent TotalCurrent Charge OuterVoltage
    InnerVoltage QuasiFermiPotential DisplacementCurrent eCurrent hCurrent
    TotalCurrent Charge ]
}

Data {
      0.00000000000000E+00
      0.00000000000000E+00   0.00000000000000E+00   0.00000000000000E+00   0.00000000000000E+00   1.22037954603712E-17
      0.00000000000000E+00   1.22037954603712E-17   3.75332662283880E-17   0.00000000000000E+00   0.00000000000000E+00
      0.00000000000000E+00   0.00000000000000E+00  -2.90554565682691E-18   0.00000000000000E+00  -2.90554565682691E-18
      3.32982174025431E-17   1.00000000000000E+00   1.00000000000000E+00   0.00000000000000E+00   0.00000000000000E+00
     -1.20795659549171E-35   1.20795659549171E-35   0.00000000000000E+00   7.25268703416092E-16   0.00000000000000E+00
      0.00000000000000E+00   0.00000000000000E+00   0.00000000000000E+00  -9.48344444061811E-19   1.21896954949971E-31
     -9.48344444061690E-19  -7.75044790784372E-16
      1.00000000000000E-02
      0.00000000000000E+00   0.00000000000000E+00   0.00000000000000E+00   0.00000000000000E+00  -4.08404202290841E-06
      0.00000000000000E+00  -4.08404202290841E-06   3.70096116845691E-17   2.50000000000000E-02   2.50000000000000E-02
      0.00000000000000E+00   0.00000000000000E+00   4.08404202326841E-06   0.00000000000000E+00   4.08404202326841E-06
      3.55532272291490E-17   1.00000000000000E+00   1.00000000000000E+00   0.00000000000000E+00   0.00000000000000E+00
     -1.21805879553630E-35   1.21805879553630E-35   0.00000000000000E+00   7.16780169455967E-16   0.00000000000000E+00
      0.00000000000000E+00   0.00000000000000E+00   0.00000000000000E+00  -3.45289125024205E-16  -7.47305051838967E-18
     -3.52762175542594E-16  -7.68558867975718E-16
      2.46000000000000E-02
      0.00000000000000E+00   0.00000000000000E+00   0.00000000000000E+00   0.00000000000000E+00  -9.66102694715639E-06
      0.00000000000000E+00  -9.66102694715639E-06   3.62516373797099E-17   6.15000000000000E-02   6.15000000000000E-02
      0.00000000000000E+00   0.00000000000000E+00   9.66102694772199E-06   0.00000000000000E+00   9.66102694772199E-06
      3.88933808623899E-17   1.00000000000000E+00   1.00000000000000E+00   0.00000000000000E+00   0.00000000000000E+00
     -1.22430569170065E-35   1.22430569170065E-35   0.00000000000000E+00   7.04473556641168E-16   0.00000000000000E+00
      0.00000000000000E+00   0.00000000000000E+00   0.00000000000000E+00  -5.76515255604228E-16  -1.44950900471478E-17
     -5.91010345651376E-16  -7.59229080898821E-16
      4.59160000000000E-02
      0.00000000000000E+00   0.00000000000000E+00   0.00000000000000E+00   0.00000000000000E+00  -1.70045978329335E-05
      0.00000000000000E+00  -1.70045978329335E-05   3.51603342323148E-17   1.14790000000000E-01   1.14790000000000E-01
      0.00000000000000E+00   0.00000000000000E+00   1.70045978336717E-05   0.00000000000000E+00   1.70045978336717E-05
      4.38739576186639E-17   1.00000000000000E+00   1.00000000000000E+00   0.00000000000000E+00   0.00000000000000E+00
     -1.22876868613315E-35   1.22876868613315E-35   0.00000000000000E+00   6.86711792589923E-16   0.00000000000000E+00
      0.00000000000000E+00   0.00000000000000E+00   0.00000000000000E+00  -7.31916938112477E-16  -2.16984505627125E-17
     -7.53615388675190E-16  -7.45928972699526E-16
      7.70373600000000E-02
      0.00000000000000E+00   0.00000000000000E+00   0.00000000000000E+00   0.00000000000000E+00  -2.61856466791005E-05
      0.00000000000000E+00  -2.61856466791005E-05   3.36047032397996E-17   1.92593400000000E-01   1.92593400000000E-01
      0.00000000000000E+00   0.00000000000000E+00   2.61856466799860E-05   0.00000000000000E+00   2.61856466799860E-05
      5.13745151307311E-17   1.00000000000000E+00   1.00000000000000E+00   0.00000000000000E+00   0.00000000000000E+00
     -1.22388088923270E-35   1.22388088923270E-35   0.00000000000000E+00   6.61296695235618E-16   0.00000000000000E+00
      0.00000000000000E+00   0.00000000000000E+00   0.00000000000000E+00  -8.50933738855617E-16  -2.98247295434434E-17
     -8.80758468399060E-16  -7.27283507551613E-16
      1.22059594133333E-01
      0.00000000000000E+00   0.00000000000000E+00   0.00000000000000E+00   0.00000000000000E+00  -3.67224178854274E-05
      0.00000000000000E+00  -3.67224178854274E-05   3.14519693187557E-17   3.05148985333333E-01   3.05148985333333E-01
      0.00000000000000E+00   0.00000000000000E+00   3.67224178865289E-05   0.00000000000000E+00   3.67224178865289E-05
      6.27366855428467E-17   1.00000000000000E+00   1.00000000000000E+00   0.00000000000000E+00   0.00000000000000E+00
     -1.22302847886859E-35   1.22302847886859E-35   0.00000000000000E+00   6.25930767388335E-16   0.00000000000000E+00
      0.00000000000000E+00   0.00000000000000E+00   0.00000000000000E+00  -1.01230131286067E-15  -3.89884975202755E-17
     -1.05128981038095E-15  -7.02291088958909E-16
      1.87191759512889E-01
      0.00000000000000E+00   0.00000000000000E+00   0.00000000000000E+00   0.00000000000000E+00  -4.74320587121403E-05
      0.00000000000000E+00  -4.74320587121403E-05   2.86134357875256E-17   4.67979398782222E-01   4.67979398782222E-01
      0.00000000000000E+00   0.00000000000000E+00   4.74320587133585E-05   0.00000000000000E+00   4.74320587133585E-05
      8.04316899225350E-17   1.00000000000000E+00   1.00000000000000E+00   0.00000000000000E+00   0.00000000000000E+00
     -1.20004254669902E-35   1.20004254669902E-35   0.00000000000000E+00   5.78953248514487E-16   0.00000000000000E+00
      0.00000000000000E+00   0.00000000000000E+00   0.00000000000000E+00  -1.69238109031081E-15  -4.94986294108002E-17
     -1.74187971972161E-15  -6.71811732399852E-16
      2.80547863223585E-01
      0.00000000000000E+00   0.00000000000000E+00   0.00000000000000E+00   0.00000000000000E+00  -5.61500223115041E-05
      0.00000000000000E+00  -5.61500223115041E-05   2.53389697884522E-17   7.01369658058963E-01   7.01369658058963E-01
      0.00000000000000E+00   0.00000000000000E+00   5.61500223130476E-05   0.00000000000000E+00   5.61500223130476E-05
      1.09440720355686E-16   1.00000000000000E+00   1.00000000000000E+00   0.00000000000000E+00   0.00000000000000E+00
     -1.22958977852501E-35   1.22958977852501E-35   0.00000000000000E+00   5.25122315078996E-16   0.00000000000000E+00
      0.00000000000000E+00   0.00000000000000E+00   0.00000000000000E+00  -1.45670534345834E-15  -5.99752324431289E-17
     -1.51668057590147E-15  -6.46195573433057E-16
      3.80547863223585E-01
      0.00000000000000E+00   0.00000000000000E+00   0.00000000000000E+00   0.00000000000000E+00  -6.09336099790890E-05
      0.00000000000000E+00  -6.09336099790890E-05   2.27931598934301E-17   9.51369658058963E-01   9.51369658058963E-01
      0.00000000000000E+00   0.00000000000000E+00   6.09336099809040E-05   0.00000000000000E+00   6.09336099809040E-05
      1.44851401250198E-16   1.00000000000000E+00   1.00000000000000E+00   0.00000000000000E+00   0.00000000000000E+00
     -1.21652303143359E-35   1.21652303143359E-35   0.00000000000000E+00   4.85877642077631E-16   0.00000000000000E+00
      0.00000000000000E+00   0.00000000000000E+00   0.00000000000000E+00  -1.66983688769000E-15  -6.70508235364298E-17
     -1.73688771122643E-15  -6.42651006148933E-16
      4.80547863223585E-01
      0.00000000000000E+00   0.00000000000000E+00   0.00000000000000E+00   0.00000000000000E+00  -6.41135923443163E-05
      0.00000000000000E+00  -6.41135923443163E-05   2.07560954419751E-17   1.20136965805896E+00   1.20136965805896E+00
      0.00000000000000E+00   0.00000000000000E+00   6.41135923461865E-05   0.00000000000000E+00   6.41135923461865E-05
      1.80415536778045E-16   1.00000000000000E+00   1.00000000000000E+00   0.00000000000000E+00   0.00000000000000E+00
     -1.21978018500529E-35   1.21978018500529E-35   0.00000000000000E+00   4.56290698842609E-16   0.00000000000000E+00
      0.00000000000000E+00   0.00000000000000E+00   0.00000000000000E+00  -1.84412358283703E-15  -7.17720135607149E-17
     -1.91589559639774E-15  -6.49278115072117E-16
      5.80547863223585E-01
      0.00000000000000E+00   0.00000000000000E+00   0.00000000000000E+00   0.00000000000000E+00  -6.66451032943094E-05
      0.00000000000000E+00  -6.66451032943094E-05   1.89948125455610E-17   1.45136965805896E+00   1.45136965805896E+00
      0.00000000000000E+00   0.00000000000000E+00   6.66451032964579E-05   0.00000000000000E+00   6.66451032964579E-05
      2.14704589443119E-16   1.00000000000000E+00   1.00000000000000E+00   0.00000000000000E+00   0.00000000000000E+00
     -1.24208345610104E-35   1.24208345610104E-35   0.00000000000000E+00   4.31229619033231E-16   0.00000000000000E+00
      0.00000000000000E+00   0.00000000000000E+00   0.00000000000000E+00  -1.88896202905375E-15  -7.53615794673567E-17
     -1.96432360852111E-15  -6.59502302935898E-16
      6.80547863223585E-01
      0.00000000000000E+00   0.00000000000000E+00   0.00000000000000E+00   0.00000000000000E+00  -6.88376346669398E-05
      0.00000000000000E+00  -6.88376346669398E-05   1.74109765069735E-17   1.70136965805896E+00   1.70136965805896E+00
      0.00000000000000E+00   0.00000000000000E+00   6.88376346690802E-05   0.00000000000000E+00   6.88376346690802E-05
      2.47967609997652E-16   1.00000000000000E+00   1.00000000000000E+00   0.00000000000000E+00   0.00000000000000E+00
     -1.21265955347342E-35   1.21265955347342E-35   0.00000000000000E+00   4.08589680432939E-16   0.00000000000000E+00
      0.00000000000000E+00   0.00000000000000E+00   0.00000000000000E+00  -2.12425863451801E-15  -7.79835476638959E-17
     -2.20224218218191E-15  -6.71485464928954E-16
      7.80547863223585E-01
      0.00000000000000E+00   0.00000000000000E+00   0.00000000000000E+00   0.00000000000000E+00  -7.08309029963282E-05
      0.00000000000000E+00  -7.08309029963282E-05   1.59502705852376E-17   1.95136965805896E+00   1.95136965805896E+00
      0.00000000000000E+00   0.00000000000000E+00   7.08309029984839E-05   0.00000000000000E+00   7.08309029984839E-05
      2.80638070616285E-16   1.00000000000000E+00   1.00000000000000E+00   0.00000000000000E+00   0.00000000000000E+00
     -1.20634508595974E-35   1.20634508595974E-35   0.00000000000000E+00   3.87283903878089E-16   0.00000000000000E+00
      0.00000000000000E+00   0.00000000000000E+00   0.00000000000000E+00  -2.24077869299659E-15  -7.99099003357513E-17
     -2.32068859333234E-15  -6.84562020559315E-16
      8.80547863223585E-01
      0.00000000000000E+00   0.00000000000000E+00   0.00000000000000E+00   0.00000000000000E+00  -7.26948154029775E-05
      0.00000000000000E+00  -7.26948154029775E-05   1.45816130873110E-17   2.20136965805896E+00   2.20136965805896E+00
      0.00000000000000E+00   0.00000000000000E+00   7.26948154055599E-05   0.00000000000000E+00   7.26948154055599E-05
      3.13002226222653E-16   1.00000000000000E+00   1.00000000000000E+00   0.00000000000000E+00   0.00000000000000E+00
     -1.23135967295320E-35   1.23135967295320E-35   0.00000000000000E+00   3.66752711784919E-16   0.00000000000000E+00
      0.00000000000000E+00   0.00000000000000E+00   0.00000000000000E+00  -2.34497178989927E-15  -8.16717658048118E-17
     -2.42664355570408E-15  -6.98437232651685E-16
      9.80547863223585E-01
      0.00000000000000E+00   0.00000000000000E+00   0.00000000000000E+00   0.00000000000000E+00  -7.44677951951786E-05
      0.00000000000000E+00  -7.44677951951786E-05   1.32858272116067E-17   2.45136965805896E+00   2.45136965805896E+00
      0.00000000000000E+00   0.00000000000000E+00   7.44677951976816E-05   0.00000000000000E+00   7.44677951976816E-05
      3.45205055181139E-16   1.00000000000000E+00   1.00000000000000E+00   0.00000000000000E+00   0.00000000000000E+00
     -1.22527973151090E-35   1.22527973151090E-35   0.00000000000000E+00   3.46691473786562E-16   0.00000000000000E+00
      0.00000000000000E+00   0.00000000000000E+00   0.00000000000000E+00  -2.43484953436334E-15  -8.33501222294040E-17
     -2.51819965659275E-15  -7.12947295015008E-16
      1.00000000000000E+00
      0.00000000000000E+00   0.00000000000000E+00   0.00000000000000E+00   0.00000000000000E+00  -7.48042197104951E-05
      0.00000000000000E+00  -7.48042197104951E-05   1.30410766704711E-17   2.50000000000000E+00   2.50000000000000E+00
      0.00000000000000E+00   0.00000000000000E+00   7.48042197129356E-05   0.00000000000000E+00   7.48042197129356E-05
      3.51458558256654E-16   1.00000000000000E+00   1.00000000000000E+00   0.00000000000000E+00   0.00000000000000E+00
     -1.21563146404588E-35   1.21563146404588E-35   0.00000000000000E+00   3.42828009214664E-16   0.00000000000000E+00
      0.00000000000000E+00   0.00000000000000E+00   0.00000000000000E+00  -2.45629203705183E-15  -8.36476428772650E-17
     -2.53993967992910E-15  -7.15833913947840E-16
}
