DF-ISE text

Info {
  version   = 1.0
  type      = xyplot
  datasets  = [
    "time"
    "source OuterVoltage" "source InnerVoltage" "source QuasiFermiPotential" "source DisplacementCurrent" "source eCurrent"
    "source hCurrent" "source TotalCurrent" "source Charge" "drain OuterVoltage" "drain InnerVoltage"
    "drain QuasiFermiPotential" "drain DisplacementCurrent" "drain eCurrent" "drain hCurrent" "drain TotalCurrent"
    "drain Charge" "gate OuterVoltage" "gate InnerVoltage" "gate QuasiFermiPotential" "gate DisplacementCurrent"
    "gate eCurrent" "gate hCurrent" "gate TotalCurrent" "gate Charge" "substrate OuterVoltage"
    "substrate InnerVoltage" "substrate QuasiFermiPotential" "substrate DisplacementCurrent" "substrate eCurrent" "substrate hCurrent"
    "substrate TotalCurrent" "substrate Charge" ]
  functions = [
    Time
    OuterVoltage InnerVoltage QuasiFermiPotential DisplacementCurrent eCurrent
    hCurrent TotalCurrent Charge OuterVoltage InnerVoltage
    QuasiFermiPotential DisplacementCurrent eCurrent hCurrent TotalCurrent
    Charge OuterVoltage InnerVoltage QuasiFermiPotential DisplacementCurrent
    eCurrent hCurrent TotalCurrent Charge OuterVoltage
    InnerVoltage QuasiFermiPotential DisplacementCurrent eCurrent hCurrent
    TotalCurrent Charge ]
}

Data {
      0.00000000000000E+00
      0.00000000000000E+00   0.00000000000000E+00   0.00000000000000E+00   0.00000000000000E+00   1.59528975801373E-16
      0.00000000000000E+00   1.59528975801373E-16  -3.06670857391405E-18   0.00000000000000E+00   0.00000000000000E+00
      0.00000000000000E+00   0.00000000000000E+00  -9.28323953865090E-17   0.00000000000000E+00  -9.28323953865090E-17
      1.29495291997678E-18   1.00000000000000E+00   1.00000000000000E+00   0.00000000000000E+00   0.00000000000000E+00
     -1.95524533483470E-36   1.95524533483470E-36   0.00000000000000E+00   7.23657896163836E-16   0.00000000000000E+00
      0.00000000000000E+00   0.00000000000000E+00   0.00000000000000E+00   2.34740278366650E-18  -6.79749326022196E-31
      2.34740278366582E-18  -7.06559542843019E-16
      1.00000000000000E-02
      0.00000000000000E+00   0.00000000000000E+00   0.00000000000000E+00   0.00000000000000E+00  -9.02997584588697E-06
      0.00000000000000E+00  -9.02997584588697E-06  -4.34345039338743E-18   2.50000000000000E-02   2.50000000000000E-02
      0.00000000000000E+00   0.00000000000000E+00   9.02997584585179E-06   0.00000000000000E+00   9.02997584585179E-06
      5.77083674394591E-18   1.00000000000000E+00   1.00000000000000E+00   0.00000000000000E+00   0.00000000000000E+00
     -1.74748060048156E-36   1.74748060048156E-36   0.00000000000000E+00   7.15165101914635E-16   0.00000000000000E+00
      0.00000000000000E+00   0.00000000000000E+00   0.00000000000000E+00  -4.10989651930383E-16  -6.17237432348347E-18
     -4.17162026253867E-16  -7.01473037611480E-16
      2.46000000000000E-02
      0.00000000000000E+00   0.00000000000000E+00   0.00000000000000E+00   0.00000000000000E+00  -2.07308775703265E-05
      0.00000000000000E+00  -2.07308775703265E-05  -6.16607505808506E-18   6.15000000000000E-02   6.15000000000000E-02
      0.00000000000000E+00   0.00000000000000E+00   2.07308775705664E-05   0.00000000000000E+00   2.07308775705664E-05
      1.23520445019104E-17   1.00000000000000E+00   1.00000000000000E+00   0.00000000000000E+00   0.00000000000000E+00
     -1.71918528740040E-36   1.71918528740040E-36   0.00000000000000E+00   7.02899355510221E-16   0.00000000000000E+00
      0.00000000000000E+00   0.00000000000000E+00   0.00000000000000E+00  -6.50509403601451E-16  -1.23016333429035E-17
     -6.62811036944355E-16  -6.94268949878408E-16
      4.59160000000000E-02
      0.00000000000000E+00   0.00000000000000E+00   0.00000000000000E+00   0.00000000000000E+00  -3.49303223669639E-05
      0.00000000000000E+00  -3.49303223669639E-05  -8.71912972173276E-18   1.14790000000000E-01   1.14790000000000E-01
      0.00000000000000E+00   0.00000000000000E+00   3.49303223674185E-05   0.00000000000000E+00   3.49303223674185E-05
      2.20779512230316E-17   1.00000000000000E+00   1.00000000000000E+00   0.00000000000000E+00   0.00000000000000E+00
     -1.75066464747605E-36   1.75066464747605E-36   0.00000000000000E+00   6.85352739396048E-16   0.00000000000000E+00
      0.00000000000000E+00   0.00000000000000E+00   0.00000000000000E+00  -7.91589042290124E-16  -1.84372751960400E-17
     -8.10026317486164E-16  -6.84339048638327E-16
      7.70373600000000E-02
      0.00000000000000E+00   0.00000000000000E+00   0.00000000000000E+00   0.00000000000000E+00  -5.06388684486847E-05
      0.00000000000000E+00  -5.06388684486847E-05  -1.21677840057311E-17   1.92593400000000E-01   1.92593400000000E-01
      0.00000000000000E+00   0.00000000000000E+00   5.06388684499958E-05   0.00000000000000E+00   5.06388684499958E-05
      3.66061492949321E-17   1.00000000000000E+00   1.00000000000000E+00   0.00000000000000E+00   0.00000000000000E+00
     -1.68253405604836E-36   1.68253405604836E-36   0.00000000000000E+00   6.60771861187251E-16   0.00000000000000E+00
      0.00000000000000E+00   0.00000000000000E+00   0.00000000000000E+00  -9.18157674772475E-16  -2.50055677296934E-17
     -9.43163242502168E-16  -6.71488713182840E-16
      1.21644642666667E-01
      0.00000000000000E+00   0.00000000000000E+00   0.00000000000000E+00   0.00000000000000E+00  -6.56251516648976E-05
      0.00000000000000E+00  -6.56251516648976E-05  -1.64580575497806E-17   3.04111606666667E-01   3.04111606666667E-01
      0.00000000000000E+00   0.00000000000000E+00   6.56251516664827E-05   0.00000000000000E+00   6.56251516664827E-05
      5.84668288754758E-17   1.00000000000000E+00   1.00000000000000E+00   0.00000000000000E+00   0.00000000000000E+00
     -1.71166953100756E-36   1.71166953100756E-36   0.00000000000000E+00   6.28536139244632E-16   0.00000000000000E+00
      0.00000000000000E+00   0.00000000000000E+00   0.00000000000000E+00  -1.07776270584795E-15  -3.20896167627357E-17
     -1.10985232261068E-15  -6.57762923640662E-16
      1.84986984053333E-01
      0.00000000000000E+00   0.00000000000000E+00   0.00000000000000E+00   0.00000000000000E+00  -7.77310773902945E-05
      0.00000000000000E+00  -7.77310773902945E-05  -2.13045635255448E-17   4.62467460133333E-01   4.62467460133333E-01
      0.00000000000000E+00   0.00000000000000E+00   7.77310773914153E-05   0.00000000000000E+00   7.77310773914153E-05
      9.32173587387503E-17   1.00000000000000E+00   1.00000000000000E+00   0.00000000000000E+00   0.00000000000000E+00
     -1.71858904982321E-36   1.71858904982321E-36   0.00000000000000E+00   5.90552749821733E-16   0.00000000000000E+00
      0.00000000000000E+00   0.00000000000000E+00   0.00000000000000E+00  -1.27868773336129E-15  -3.94496402743809E-17
     -1.31813737363567E-15  -6.51033611806952E-16
      2.74088544270578E-01
      0.00000000000000E+00   0.00000000000000E+00   0.00000000000000E+00   0.00000000000000E+00  -8.73806649277439E-05
      0.00000000000000E+00  -8.73806649277439E-05  -2.66256032851065E-17   6.85221360676444E-01   6.85221360676444E-01
      0.00000000000000E+00   0.00000000000000E+00   8.73806649288370E-05   0.00000000000000E+00   8.73806649288370E-05
      1.49074002251715E-16   1.00000000000000E+00   1.00000000000000E+00   0.00000000000000E+00   0.00000000000000E+00
     -1.70298191486537E-36   1.70298191486537E-36   0.00000000000000E+00   5.49232443508377E-16   0.00000000000000E+00
      0.00000000000000E+00   0.00000000000000E+00   0.00000000000000E+00  -1.51275047029377E-15  -4.68039512536013E-17
     -1.55955442154737E-15  -6.62199500746184E-16
      3.74088544270578E-01
      0.00000000000000E+00   0.00000000000000E+00   0.00000000000000E+00   0.00000000000000E+00  -9.53132203200835E-05
      0.00000000000000E+00  -9.53132203200835E-05  -3.17208044564520E-17   9.35221360676444E-01   9.35221360676444E-01
      0.00000000000000E+00   0.00000000000000E+00   9.53132203222282E-05   0.00000000000000E+00   9.53132203222282E-05
      2.11493132651376E-16   1.00000000000000E+00   1.00000000000000E+00   0.00000000000000E+00   0.00000000000000E+00
     -1.62439094163171E-36   1.62439094163171E-36   0.00000000000000E+00   5.09339375194178E-16   0.00000000000000E+00
      0.00000000000000E+00   0.00000000000000E+00   0.00000000000000E+00  -1.73137790563449E-15  -5.27136504540524E-17
     -1.78409155608854E-15  -6.81915748033654E-16
      4.74088544270578E-01
      0.00000000000000E+00   0.00000000000000E+00   0.00000000000000E+00   0.00000000000000E+00  -1.02078848195097E-04
      0.00000000000000E+00  -1.02078848195097E-04  -3.63068823499685E-17   1.18522136067644E+00   1.18522136067644E+00
      0.00000000000000E+00   0.00000000000000E+00   1.02078848196196E-04   0.00000000000000E+00   1.02078848196196E-04
      2.73690181800460E-16   1.00000000000000E+00   1.00000000000000E+00   0.00000000000000E+00   0.00000000000000E+00
     -1.74513382473389E-36   1.74513382473389E-36   0.00000000000000E+00   4.72143041393577E-16   0.00000000000000E+00
      0.00000000000000E+00   0.00000000000000E+00   0.00000000000000E+00  -1.92352583213090E-15  -5.73709574646376E-17
     -1.98089678959554E-15  -7.04725693018477E-16
      5.74088544270578E-01
      0.00000000000000E+00   0.00000000000000E+00   0.00000000000000E+00   0.00000000000000E+00  -1.08218388779686E-04
      0.00000000000000E+00  -1.08218388779686E-04  -4.05419898713768E-17   1.43522136067644E+00   1.43522136067644E+00
      0.00000000000000E+00   0.00000000000000E+00   1.08218388782726E-04   0.00000000000000E+00   1.08218388782726E-04
      3.35410444955861E-16   1.00000000000000E+00   1.00000000000000E+00   0.00000000000000E+00   0.00000000000000E+00
     -1.84939839034951E-36   1.84939839034951E-36   0.00000000000000E+00   4.36243214393202E-16   0.00000000000000E+00
      0.00000000000000E+00   0.00000000000000E+00   0.00000000000000E+00  -2.08050419201946E-15  -6.07518415337273E-17
     -2.14125603355319E-15  -7.28813833238558E-16
      6.74088544270578E-01
      0.00000000000000E+00   0.00000000000000E+00   0.00000000000000E+00   0.00000000000000E+00  -1.13943229408659E-04
      0.00000000000000E+00  -1.13943229408659E-04  -4.45055035640621E-17   1.68522136067644E+00   1.68522136067644E+00
      0.00000000000000E+00   0.00000000000000E+00   1.13943229411117E-04   0.00000000000000E+00   1.13943229411117E-04
      3.96571538848636E-16   1.00000000000000E+00   1.00000000000000E+00   0.00000000000000E+00   0.00000000000000E+00
     -1.76449261188357E-36   1.76449261188357E-36   0.00000000000000E+00   4.01202093251984E-16   0.00000000000000E+00
      0.00000000000000E+00   0.00000000000000E+00   0.00000000000000E+00  -2.22192094358774E-15  -6.36832014559898E-17
     -2.28560414504373E-15  -7.53591161938270E-16
      7.74088544270578E-01
      0.00000000000000E+00   0.00000000000000E+00   0.00000000000000E+00   0.00000000000000E+00  -1.19366005645075E-04
      0.00000000000000E+00  -1.19366005645075E-04  -4.82488073770401E-17   1.93522136067644E+00   1.93522136067644E+00
      0.00000000000000E+00   0.00000000000000E+00   1.19366005647534E-04   0.00000000000000E+00   1.19366005647534E-04
      4.57118077196843E-16   1.00000000000000E+00   1.00000000000000E+00   0.00000000000000E+00   0.00000000000000E+00
     -1.74959523274596E-36   1.74959523274596E-36   0.00000000000000E+00   3.66811739605180E-16   0.00000000000000E+00
      0.00000000000000E+00   0.00000000000000E+00   0.00000000000000E+00  -2.34162493809702E-15  -6.64106506549849E-17
     -2.40803558875201E-15  -7.78752039696581E-16
      8.74088544270578E-01
      0.00000000000000E+00   0.00000000000000E+00   0.00000000000000E+00   0.00000000000000E+00  -1.24553906005532E-04
      0.00000000000000E+00  -1.24553906005532E-04  -5.18079014366436E-17   2.18522136067644E+00   2.18522136067644E+00
      0.00000000000000E+00   0.00000000000000E+00   1.24553906007810E-04   0.00000000000000E+00   1.24553906007810E-04
      5.17042895763679E-16   1.00000000000000E+00   1.00000000000000E+00   0.00000000000000E+00   0.00000000000000E+00
     -1.77468302914996E-36   1.77468302914996E-36   0.00000000000000E+00   3.32966062044307E-16   0.00000000000000E+00
      0.00000000000000E+00   0.00000000000000E+00   0.00000000000000E+00  -2.45436566588967E-15  -6.85258548608919E-17
     -2.52289152075056E-15  -8.04150986304910E-16
      9.74088544270578E-01
      0.00000000000000E+00   0.00000000000000E+00   0.00000000000000E+00   0.00000000000000E+00  -1.29553142631748E-04
      0.00000000000000E+00  -1.29553142631748E-04  -5.52103037356912E-17   2.43522136067644E+00   2.43522136067644E+00
      0.00000000000000E+00   0.00000000000000E+00   1.29553142633337E-04   0.00000000000000E+00   1.29553142633337E-04
      5.76358568655261E-16   1.00000000000000E+00   1.00000000000000E+00   0.00000000000000E+00   0.00000000000000E+00
     -1.88831982342678E-36   1.88831982342678E-36   0.00000000000000E+00   2.99592163809716E-16   0.00000000000000E+00
      0.00000000000000E+00   0.00000000000000E+00   0.00000000000000E+00  -2.55857914108895E-15  -7.00089296989728E-17
     -2.62858807078793E-15  -8.29699767168481E-16
      1.00000000000000E+00
      0.00000000000000E+00   0.00000000000000E+00   0.00000000000000E+00   0.00000000000000E+00  -1.30822068245463E-04
      0.00000000000000E+00  -1.30822068245463E-04  -5.60691270199581E-17   2.50000000000000E+00   2.50000000000000E+00
      0.00000000000000E+00   0.00000000000000E+00   1.30822068248675E-04   0.00000000000000E+00   1.30822068248675E-04
      5.91628661249459E-16   1.00000000000000E+00   1.00000000000000E+00   0.00000000000000E+00   0.00000000000000E+00
     -1.77203963516954E-36   1.77203963516954E-36   0.00000000000000E+00   2.91013940391680E-16   0.00000000000000E+00
      0.00000000000000E+00   0.00000000000000E+00   0.00000000000000E+00  -2.58159185097945E-15  -7.03172226499190E-17
     -2.65190907362937E-15  -8.36333579290327E-16
}
