DF-ISE text

Info {
  version   = 1.0
  type      = xyplot
  datasets  = [
    "time"
    "source OuterVoltage" "source InnerVoltage" "source QuasiFermiPotential" "source DisplacementCurrent" "source eCurrent"
    "source hCurrent" "source TotalCurrent" "source Charge" "drain OuterVoltage" "drain InnerVoltage"
    "drain QuasiFermiPotential" "drain DisplacementCurrent" "drain eCurrent" "drain hCurrent" "drain TotalCurrent"
    "drain Charge" "gate OuterVoltage" "gate InnerVoltage" "gate QuasiFermiPotential" "gate DisplacementCurrent"
    "gate eCurrent" "gate hCurrent" "gate TotalCurrent" "gate Charge" "substrate OuterVoltage"
    "substrate InnerVoltage" "substrate QuasiFermiPotential" "substrate DisplacementCurrent" "substrate eCurrent" "substrate hCurrent"
    "substrate TotalCurrent" "substrate Charge" ]
  functions = [
    Time
    OuterVoltage InnerVoltage QuasiFermiPotential DisplacementCurrent eCurrent
    hCurrent TotalCurrent Charge OuterVoltage InnerVoltage
    QuasiFermiPotential DisplacementCurrent eCurrent hCurrent TotalCurrent
    Charge OuterVoltage InnerVoltage QuasiFermiPotential DisplacementCurrent
    eCurrent hCurrent TotalCurrent Charge OuterVoltage
    InnerVoltage QuasiFermiPotential DisplacementCurrent eCurrent hCurrent
    TotalCurrent Charge ]
}

Data {
      0.00000000000000E+00
      0.00000000000000E+00   0.00000000000000E+00   0.00000000000000E+00   0.00000000000000E+00   1.68119165640247E-18
      0.00000000000000E+00   1.68119165640247E-18   5.47310188480884E-18   0.00000000000000E+00   0.00000000000000E+00
      0.00000000000000E+00   0.00000000000000E+00   4.77873606540797E-19   0.00000000000000E+00   4.77873606540797E-19
      1.42112536954429E-17   1.00000000000000E+00   1.00000000000000E+00   0.00000000000000E+00   0.00000000000000E+00
     -9.22744594059615E-36   9.22744594059615E-36   0.00000000000000E+00   7.25662181395573E-16   0.00000000000000E+00
      0.00000000000000E+00   0.00000000000000E+00   0.00000000000000E+00   1.12056803719140E-20  -3.89453181113500E-31
      1.12056803715246E-20  -7.13461008444690E-16
      1.00000000000000E-02
      0.00000000000000E+00   0.00000000000000E+00   0.00000000000000E+00   0.00000000000000E+00  -4.06292282509963E-06
      0.00000000000000E+00  -4.06292282509963E-06   4.88315828174946E-18   2.50000000000000E-02   2.50000000000000E-02
      0.00000000000000E+00   0.00000000000000E+00   4.06292282547555E-06   0.00000000000000E+00   4.06292282547555E-06
      1.73641291787718E-17   1.00000000000000E+00   1.00000000000000E+00   0.00000000000000E+00   0.00000000000000E+00
     -9.50021747266890E-36   9.50021747266890E-36   0.00000000000000E+00   7.17178532398175E-16   0.00000000000000E+00
      0.00000000000000E+00   0.00000000000000E+00   0.00000000000000E+00  -3.67258007132722E-16  -7.45942069580567E-18
     -3.74717427828528E-16  -7.07832824134510E-16
      2.46000000000000E-02
      0.00000000000000E+00   0.00000000000000E+00   0.00000000000000E+00   0.00000000000000E+00  -9.58581766107013E-06
      0.00000000000000E+00  -9.58581766107013E-06   4.01894500120294E-18   6.15000000000000E-02   6.15000000000000E-02
      0.00000000000000E+00   0.00000000000000E+00   9.58581766170100E-06   0.00000000000000E+00   9.58581766170100E-06
      2.19930845024770E-17   1.00000000000000E+00   1.00000000000000E+00   0.00000000000000E+00   0.00000000000000E+00
     -9.53339813187792E-36   9.53339813187792E-36   0.00000000000000E+00   7.04853357487212E-16   0.00000000000000E+00
      0.00000000000000E+00   0.00000000000000E+00   0.00000000000000E+00  -6.13636686982762E-16  -1.45548244246990E-17
     -6.28191511407461E-16  -6.99694342866632E-16
      4.59160000000000E-02
      0.00000000000000E+00   0.00000000000000E+00   0.00000000000000E+00   0.00000000000000E+00  -1.68029386653063E-05
      0.00000000000000E+00  -1.68029386653063E-05   2.75412650747416E-18   1.14790000000000E-01   1.14790000000000E-01
      0.00000000000000E+00   0.00000000000000E+00   1.68029386669101E-05   0.00000000000000E+00   1.68029386669101E-05
      2.88088378082176E-17   1.00000000000000E+00   1.00000000000000E+00   0.00000000000000E+00   0.00000000000000E+00
     -9.52312736632674E-36   9.52312736632674E-36   0.00000000000000E+00   6.87007430503088E-16   0.00000000000000E+00
      0.00000000000000E+00   0.00000000000000E+00   0.00000000000000E+00  -7.72693024818171E-16  -2.17392147948012E-17
     -7.94432239612972E-16  -6.87997238064131E-16
      7.70373600000000E-02
      0.00000000000000E+00   0.00000000000000E+00   0.00000000000000E+00   0.00000000000000E+00  -2.57170588678119E-05
      0.00000000000000E+00  -2.57170588678119E-05   9.15709307215874E-19   1.92593400000000E-01   1.92593400000000E-01
      0.00000000000000E+00   0.00000000000000E+00   2.57170588687461E-05   0.00000000000000E+00   2.57170588687461E-05
      3.88956903310302E-17   1.00000000000000E+00   1.00000000000000E+00   0.00000000000000E+00   0.00000000000000E+00
     -9.35442799149977E-36   9.35442799149977E-36   0.00000000000000E+00   6.61344470267953E-16   0.00000000000000E+00
      0.00000000000000E+00   0.00000000000000E+00   0.00000000000000E+00  -9.12898028122360E-16  -2.98321883824898E-17
     -9.42730216504850E-16  -6.71386091663627E-16
      1.22059594133333E-01
      0.00000000000000E+00   0.00000000000000E+00   0.00000000000000E+00   0.00000000000000E+00  -3.57592064381406E-05
      0.00000000000000E+00  -3.57592064381406E-05  -1.67153782386253E-18   3.05148985333333E-01   3.05148985333333E-01
      0.00000000000000E+00   0.00000000000000E+00   3.57592064392629E-05   0.00000000000000E+00   3.57592064392629E-05
      5.38339555895553E-17   1.00000000000000E+00   1.00000000000000E+00   0.00000000000000E+00   0.00000000000000E+00
     -9.56117942360391E-36   9.56117942360391E-36   0.00000000000000E+00   6.25351949805132E-16   0.00000000000000E+00
      0.00000000000000E+00   0.00000000000000E+00   0.00000000000000E+00  -1.07849709873527E-15  -3.92735168422474E-17
     -1.11777061557752E-15  -6.48648189265795E-16
      1.86591463057778E-01
      0.00000000000000E+00   0.00000000000000E+00   0.00000000000000E+00   0.00000000000000E+00  -4.56545302348522E-05
      0.00000000000000E+00  -4.56545302348522E-05  -5.12635947345832E-18   4.66478657644445E-01   4.66478657644445E-01
      0.00000000000000E+00   0.00000000000000E+00   4.56545302361787E-05   0.00000000000000E+00   4.56545302361787E-05
      7.61490802868213E-17   1.00000000000000E+00   1.00000000000000E+00   0.00000000000000E+00   0.00000000000000E+00
     -9.46486522903073E-36   9.46486522903073E-36   0.00000000000000E+00   5.77419188705055E-16   0.00000000000000E+00
      0.00000000000000E+00   0.00000000000000E+00   0.00000000000000E+00  -1.28670854242587E-15  -4.98343224097873E-17
     -1.33654286483566E-15  -6.20128058311874E-16
      2.79087141849481E-01
      0.00000000000000E+00   0.00000000000000E+00   0.00000000000000E+00   0.00000000000000E+00  -5.38711198655845E-05
      0.00000000000000E+00  -5.38711198655845E-05  -9.56177304520806E-18   6.97717854623704E-01   6.97717854623704E-01
      0.00000000000000E+00   0.00000000000000E+00   5.38711198671497E-05   0.00000000000000E+00   5.38711198671497E-05
      1.10018629373470E-16   1.00000000000000E+00   1.00000000000000E+00   0.00000000000000E+00   0.00000000000000E+00
     -9.60150218312884E-36   9.60150218312884E-36   0.00000000000000E+00   5.20506451623071E-16   0.00000000000000E+00
      0.00000000000000E+00   0.00000000000000E+00   0.00000000000000E+00  -1.53841528967903E-15  -6.04742025205270E-17
     -1.59888949219955E-15  -5.92643524552475E-16
      3.79087141849481E-01
      0.00000000000000E+00   0.00000000000000E+00   0.00000000000000E+00   0.00000000000000E+00  -5.85901206262902E-05
      0.00000000000000E+00  -5.85901206262902E-05  -1.35388655556064E-17   9.47717854623704E-01   9.47717854623704E-01
      0.00000000000000E+00   0.00000000000000E+00   5.85901206281142E-05   0.00000000000000E+00   5.85901206281142E-05
      1.48320826248959E-16   1.00000000000000E+00   1.00000000000000E+00   0.00000000000000E+00   0.00000000000000E+00
     -9.41838818403502E-36   9.41838818403502E-36   0.00000000000000E+00   4.77060867357377E-16   0.00000000000000E+00
      0.00000000000000E+00   0.00000000000000E+00   0.00000000000000E+00  -1.75565246619539E-15  -6.78305325726866E-17
     -1.82348299876808E-15  -5.83767113705474E-16
      4.79087141849481E-01
      0.00000000000000E+00   0.00000000000000E+00   0.00000000000000E+00   0.00000000000000E+00  -6.15584603870235E-05
      0.00000000000000E+00  -6.15584603870235E-05  -1.67992496041911E-17   1.19771785462370E+00   1.19771785462370E+00
      0.00000000000000E+00   0.00000000000000E+00   6.15584603890231E-05   0.00000000000000E+00   6.15584603890231E-05
      1.85659815090018E-16   1.00000000000000E+00   1.00000000000000E+00   0.00000000000000E+00   0.00000000000000E+00
     -9.34167513516104E-36   9.34167513516104E-36   0.00000000000000E+00   4.46061151064992E-16   0.00000000000000E+00
      0.00000000000000E+00   0.00000000000000E+00   0.00000000000000E+00  -1.92948348382799E-15  -7.26540957615998E-17
     -2.00213757958959E-15  -5.87390103949071E-16
      5.79087141849481E-01
      0.00000000000000E+00   0.00000000000000E+00   0.00000000000000E+00   0.00000000000000E+00  -6.38623725526374E-05
      0.00000000000000E+00  -6.38623725526374E-05  -1.96349543964838E-17   1.44771785462370E+00   1.44771785462370E+00
      0.00000000000000E+00   0.00000000000000E+00   6.38623725547485E-05   0.00000000000000E+00   6.38623725547485E-05
      2.20687039482159E-16   1.00000000000000E+00   1.00000000000000E+00   0.00000000000000E+00   0.00000000000000E+00
     -9.46343922809132E-36   9.46343922809132E-36   0.00000000000000E+00   4.20692635298589E-16   0.00000000000000E+00
      0.00000000000000E+00   0.00000000000000E+00   0.00000000000000E+00  -2.07588868756450E-15  -7.62877451413101E-17
     -2.15217643270581E-15  -5.95119773934914E-16
      6.79087141849481E-01
      0.00000000000000E+00   0.00000000000000E+00   0.00000000000000E+00   0.00000000000000E+00  -6.58511692830168E-05
      0.00000000000000E+00  -6.58511692830168E-05  -2.22031793867791E-17   1.69771785462370E+00   1.69771785462370E+00
      0.00000000000000E+00   0.00000000000000E+00   6.58511692853113E-05   0.00000000000000E+00   6.58511692853113E-05
      2.54064030983317E-16   1.00000000000000E+00   1.00000000000000E+00   0.00000000000000E+00   0.00000000000000E+00
     -9.36905673726087E-36   9.36905673726087E-36   0.00000000000000E+00   3.97961508866367E-16   0.00000000000000E+00
      0.00000000000000E+00   0.00000000000000E+00   0.00000000000000E+00  -2.20228931661374E-15  -7.88612614488213E-17
     -2.28115057806256E-15  -6.04504136040342E-16
      7.79087141849481E-01
      0.00000000000000E+00   0.00000000000000E+00   0.00000000000000E+00   0.00000000000000E+00  -6.76620348810046E-05
      0.00000000000000E+00  -6.76620348810046E-05  -2.45849855850548E-17   1.94771785462370E+00   1.94771785462370E+00
      0.00000000000000E+00   0.00000000000000E+00   6.76620348833784E-05   0.00000000000000E+00   6.76620348833784E-05
      2.86418804075654E-16   1.00000000000000E+00   1.00000000000000E+00   0.00000000000000E+00   0.00000000000000E+00
     -9.51890191179944E-36   9.51890191179944E-36   0.00000000000000E+00   3.76560723319540E-16   0.00000000000000E+00
      0.00000000000000E+00   0.00000000000000E+00   0.00000000000000E+00  -2.31368930733133E-15  -8.09728782299468E-17
     -2.39466218556127E-15  -6.14812674525201E-16
      8.79087141849481E-01
      0.00000000000000E+00   0.00000000000000E+00   0.00000000000000E+00   0.00000000000000E+00  -6.93585048012943E-05
      0.00000000000000E+00  -6.93585048012943E-05  -2.68243860104240E-17   2.19771785462370E+00   2.19771785462370E+00
      0.00000000000000E+00   0.00000000000000E+00   6.93585048038139E-05   0.00000000000000E+00   6.93585048038139E-05
      3.18090402278380E-16   1.00000000000000E+00   1.00000000000000E+00   0.00000000000000E+00   0.00000000000000E+00
     -9.43617997765005E-36   9.43617997765005E-36   0.00000000000000E+00   3.55868566802901E-16   0.00000000000000E+00
      0.00000000000000E+00   0.00000000000000E+00   0.00000000000000E+00  -2.41327187683927E-15  -8.30253572242345E-17
     -2.49629723406350E-15  -6.25750332893629E-16
      9.79087141849481E-01
      0.00000000000000E+00   0.00000000000000E+00   0.00000000000000E+00   0.00000000000000E+00  -7.09741751777354E-05
      0.00000000000000E+00  -7.09741751777354E-05  -2.89480634452203E-17   2.44771785462370E+00   2.44771785462370E+00
      0.00000000000000E+00   0.00000000000000E+00   7.09741751802541E-05   0.00000000000000E+00   7.09741751802541E-05
      3.49253615002096E-16   1.00000000000000E+00   1.00000000000000E+00   0.00000000000000E+00   0.00000000000000E+00
     -9.43176051458793E-36   9.43176051458793E-36   0.00000000000000E+00   3.35561842897808E-16   0.00000000000000E+00
      0.00000000000000E+00   0.00000000000000E+00   0.00000000000000E+00  -2.50318634094771E-15  -8.48870948872083E-17
     -2.58807343583492E-15  -6.37175140951264E-16
      1.00000000000000E+00
      0.00000000000000E+00   0.00000000000000E+00   0.00000000000000E+00   0.00000000000000E+00  -7.13038649750207E-05
      0.00000000000000E+00  -7.13038649750207E-05  -2.93793704092276E-17   2.50000000000000E+00   2.50000000000000E+00
      0.00000000000000E+00   0.00000000000000E+00   7.13038649775788E-05   0.00000000000000E+00   7.13038649775788E-05
      3.55718092724699E-16   1.00000000000000E+00   1.00000000000000E+00   0.00000000000000E+00   0.00000000000000E+00
     -9.55481612127566E-36   9.55481612127566E-36   0.00000000000000E+00   3.31344651176475E-16   0.00000000000000E+00
      0.00000000000000E+00   0.00000000000000E+00   0.00000000000000E+00  -2.52082343868473E-15  -8.52291976831659E-17
     -2.60605263636789E-15  -6.39619834352978E-16
}
