DF-ISE text

Info {
  version   = 1.0
  type      = xyplot
  datasets  = [
    "time"
    "source OuterVoltage" "source InnerVoltage" "source QuasiFermiPotential" "source DisplacementCurrent" "source eCurrent"
    "source hCurrent" "source TotalCurrent" "source Charge" "drain OuterVoltage" "drain InnerVoltage"
    "drain QuasiFermiPotential" "drain DisplacementCurrent" "drain eCurrent" "drain hCurrent" "drain TotalCurrent"
    "drain Charge" "gate OuterVoltage" "gate InnerVoltage" "gate QuasiFermiPotential" "gate DisplacementCurrent"
    "gate eCurrent" "gate hCurrent" "gate TotalCurrent" "gate Charge" "substrate OuterVoltage"
    "substrate InnerVoltage" "substrate QuasiFermiPotential" "substrate DisplacementCurrent" "substrate eCurrent" "substrate hCurrent"
    "substrate TotalCurrent" "substrate Charge" ]
  functions = [
    Time
    OuterVoltage InnerVoltage QuasiFermiPotential DisplacementCurrent eCurrent
    hCurrent TotalCurrent Charge OuterVoltage InnerVoltage
    QuasiFermiPotential DisplacementCurrent eCurrent hCurrent TotalCurrent
    Charge OuterVoltage InnerVoltage QuasiFermiPotential DisplacementCurrent
    eCurrent hCurrent TotalCurrent Charge OuterVoltage
    InnerVoltage QuasiFermiPotential DisplacementCurrent eCurrent hCurrent
    TotalCurrent Charge ]
}

Data {
      0.00000000000000E+00
      0.00000000000000E+00   0.00000000000000E+00   0.00000000000000E+00   0.00000000000000E+00   1.15022403653497E-16
      0.00000000000000E+00   1.15022403653497E-16   7.13426559380738E-17   0.00000000000000E+00   0.00000000000000E+00
      0.00000000000000E+00   0.00000000000000E+00   1.89273148016133E-16   0.00000000000000E+00   1.89273148016133E-16
      7.43589617802808E-17   0.00000000000000E+00   0.00000000000000E+00   0.00000000000000E+00   0.00000000000000E+00
     -5.33570447014256E-36   5.33570447014256E-36   0.00000000000000E+00   7.55960017306754E-17   0.00000000000000E+00
      0.00000000000000E+00   0.00000000000000E+00   0.00000000000000E+00  -1.25576539715821E-19  -8.12178767465299E-31
     -1.25576539716633E-19  -2.22489526448801E-16
      1.00000000000000E-02
      0.00000000000000E+00   0.00000000000000E+00   0.00000000000000E+00   0.00000000000000E+00  -1.28659320959299E-06
      0.00000000000000E+00  -1.28659320959299E-06   7.02493205514897E-17   2.50000000000000E-02   2.50000000000000E-02
      0.00000000000000E+00   0.00000000000000E+00   1.28659321012055E-06   0.00000000000000E+00   1.28659321012055E-06
      7.91324146695200E-17   0.00000000000000E+00   0.00000000000000E+00   0.00000000000000E+00   0.00000000000000E+00
     -5.37797771941616E-36   5.37797771941616E-36   0.00000000000000E+00   6.90042218906267E-17   0.00000000000000E+00
      0.00000000000000E+00   0.00000000000000E+00   0.00000000000000E+00  -3.98807769932054E-16  -6.11375823730564E-18
     -4.04921528169360E-16  -2.19801424468540E-16
      2.46000000000000E-02
      0.00000000000000E+00   0.00000000000000E+00   0.00000000000000E+00   0.00000000000000E+00  -2.53510328788599E-06
      0.00000000000000E+00  -2.53510328788599E-06   6.88409330151229E-17   6.15000000000000E-02   6.15000000000000E-02
      0.00000000000000E+00   0.00000000000000E+00   2.53510328859239E-06   0.00000000000000E+00   2.53510328859239E-06
      8.63629499506814E-17   0.00000000000000E+00   0.00000000000000E+00   0.00000000000000E+00   0.00000000000000E+00
     -5.42026190547710E-36   5.42026190547710E-36   0.00000000000000E+00   6.02290648255814E-17   0.00000000000000E+00
      0.00000000000000E+00   0.00000000000000E+00   0.00000000000000E+00  -6.29243638395520E-16  -1.19619401827399E-17
     -6.41205578578260E-16  -2.17176526819593E-16
      4.59160000000000E-02
      0.00000000000000E+00   0.00000000000000E+00   0.00000000000000E+00   0.00000000000000E+00  -3.56180812880625E-06
      0.00000000000000E+00  -3.56180812880625E-06   6.71313685665070E-17   1.14790000000000E-01   1.14790000000000E-01
      0.00000000000000E+00   0.00000000000000E+00   3.56180812950918E-06   0.00000000000000E+00   3.56180812950918E-06
      9.76970036410955E-17   0.00000000000000E+00   0.00000000000000E+00   0.00000000000000E+00   0.00000000000000E+00
     -5.32600083171374E-36   5.32600083171374E-36   0.00000000000000E+00   4.93430396634124E-17   0.00000000000000E+00
      0.00000000000000E+00   0.00000000000000E+00   0.00000000000000E+00  -7.37506722845289E-16  -1.74577764795583E-17
     -7.54964499324847E-16  -2.16398192440327E-16
      7.67531466666667E-02
      0.00000000000000E+00   0.00000000000000E+00   0.00000000000000E+00   0.00000000000000E+00  -4.52974843415770E-06
      0.00000000000000E+00  -4.52974843415770E-06   6.50294702851194E-17   1.91882866666667E-01   1.91882866666667E-01
      0.00000000000000E+00   0.00000000000000E+00   4.52974843548441E-06   0.00000000000000E+00   4.52974843548441E-06
      1.15767839609814E-16   0.00000000000000E+00   0.00000000000000E+00   0.00000000000000E+00   0.00000000000000E+00
     -5.17479253005944E-36   5.17479253005944E-36   0.00000000000000E+00   3.61920731077662E-17   0.00000000000000E+00
      0.00000000000000E+00   0.00000000000000E+00   0.00000000000000E+00  -8.45972658790510E-16  -2.30417541451670E-17
     -8.69014412935677E-16  -2.19925436365928E-16
      1.20953056888889E-01
      0.00000000000000E+00   0.00000000000000E+00   0.00000000000000E+00   0.00000000000000E+00  -5.77186065787675E-06
      0.00000000000000E+00  -5.77186065787675E-06   6.22731549660739E-17   3.02382642222222E-01   3.02382642222222E-01
      0.00000000000000E+00   0.00000000000000E+00   5.77186065873865E-06   0.00000000000000E+00   5.77186065873865E-06
      1.43459479247297E-16   0.00000000000000E+00   0.00000000000000E+00   0.00000000000000E+00   0.00000000000000E+00
     -5.25820385704229E-36   5.25820385704229E-36   0.00000000000000E+00   1.91446036350894E-17   0.00000000000000E+00
      0.00000000000000E+00   0.00000000000000E+00   0.00000000000000E+00  -9.89632759772518E-16  -2.91819183552460E-17
     -1.01881467812776E-15  -2.28852723698987E-16
      1.83127597268148E-01
      0.00000000000000E+00   0.00000000000000E+00   0.00000000000000E+00   0.00000000000000E+00  -7.50563249608101E-06
      0.00000000000000E+00  -7.50563249608101E-06   5.86606011921621E-17   4.57818993170370E-01   4.57818993170370E-01
      0.00000000000000E+00   0.00000000000000E+00   7.50563249760711E-06   0.00000000000000E+00   7.50563249760711E-06
      1.83097162020873E-16   0.00000000000000E+00   0.00000000000000E+00   0.00000000000000E+00   0.00000000000000E+00
     -5.29764774117370E-36   5.29764774117370E-36   0.00000000000000E+00  -3.56613793130528E-18   0.00000000000000E+00
      0.00000000000000E+00   0.00000000000000E+00   0.00000000000000E+00  -1.16734639591600E-15  -3.58653768440080E-17
     -1.20321177276000E-15  -2.43674489052434E-16
      2.71415444606696E-01
      0.00000000000000E+00   0.00000000000000E+00   0.00000000000000E+00   0.00000000000000E+00  -1.00460338393561E-05
      0.00000000000000E+00  -1.00460338393561E-05   5.39075362100712E-17   6.78538611516741E-01   6.78538611516741E-01
      0.00000000000000E+00   0.00000000000000E+00   1.00460338405313E-05   0.00000000000000E+00   1.00460338405313E-05
      2.38166651469615E-16   0.00000000000000E+00   0.00000000000000E+00   0.00000000000000E+00   0.00000000000000E+00
     -5.17389689531848E-36   5.17389689531848E-36   0.00000000000000E+00  -3.46685120276745E-17   0.00000000000000E+00
      0.00000000000000E+00   0.00000000000000E+00   0.00000000000000E+00  -1.41088129933618E-15  -4.30662755913149E-17
     -1.45394757492750E-15  -2.65115667935379E-16
      3.71415444606696E-01
      0.00000000000000E+00   0.00000000000000E+00   0.00000000000000E+00   0.00000000000000E+00  -1.30573957664563E-05
      0.00000000000000E+00  -1.30573957664563E-05   4.89399902233840E-17   9.28538611516741E-01   9.28538611516741E-01
      0.00000000000000E+00   0.00000000000000E+00   1.30573957682720E-05   0.00000000000000E+00   1.30573957682720E-05
      2.99328861586528E-16   0.00000000000000E+00   0.00000000000000E+00   0.00000000000000E+00   0.00000000000000E+00
     -5.13794186186291E-36   5.13794186186291E-36   0.00000000000000E+00  -6.90283603441455E-17   0.00000000000000E+00
      0.00000000000000E+00   0.00000000000000E+00   0.00000000000000E+00  -1.64340666362299E-15  -4.91840709967232E-17
     -1.69259073461971E-15  -2.89592571649937E-16
      4.71415444606696E-01
      0.00000000000000E+00   0.00000000000000E+00   0.00000000000000E+00   0.00000000000000E+00  -1.61940780526886E-05
      0.00000000000000E+00  -1.61940780526886E-05   4.43260203294550E-17   1.17853861151674E+00   1.17853861151674E+00
      0.00000000000000E+00   0.00000000000000E+00   1.61940780548761E-05   0.00000000000000E+00   1.61940780548761E-05
      3.59757524626601E-16   0.00000000000000E+00   0.00000000000000E+00   0.00000000000000E+00   0.00000000000000E+00
     -5.25280423179992E-36   5.25280423179992E-36   0.00000000000000E+00  -1.02825897197852E-16   0.00000000000000E+00
      0.00000000000000E+00   0.00000000000000E+00   0.00000000000000E+00  -1.84165118382985E-15  -5.41272597450268E-17
     -1.89577844357488E-15  -3.14376789858658E-16
      5.71415444606696E-01
      0.00000000000000E+00   0.00000000000000E+00   0.00000000000000E+00   0.00000000000000E+00  -1.94288117471806E-05
      0.00000000000000E+00  -1.94288117471806E-05   4.00020488652704E-17   1.42853861151674E+00   1.42853861151674E+00
      0.00000000000000E+00   0.00000000000000E+00   1.94288117492772E-05   0.00000000000000E+00   1.94288117492772E-05
      4.19556097549333E-16   0.00000000000000E+00   0.00000000000000E+00   0.00000000000000E+00   0.00000000000000E+00
     -5.40325198070198E-36   5.40325198070198E-36   0.00000000000000E+00  -1.36199923812617E-16   0.00000000000000E+00
      0.00000000000000E+00   0.00000000000000E+00   0.00000000000000E+00  -2.01301852049237E-15  -5.78354975462643E-17
     -2.07085401803863E-15  -3.39367435696518E-16
      6.71415444606696E-01
      0.00000000000000E+00   0.00000000000000E+00   0.00000000000000E+00   0.00000000000000E+00  -2.27371014000521E-05
      0.00000000000000E+00  -2.27371014000521E-05   3.59204767033457E-17   1.67853861151674E+00   1.67853861151674E+00
      0.00000000000000E+00   0.00000000000000E+00   2.27371014012424E-05   0.00000000000000E+00   2.27371014012424E-05
      4.78770536547057E-16   0.00000000000000E+00   0.00000000000000E+00   0.00000000000000E+00   0.00000000000000E+00
     -5.44324258268808E-36   5.44324258268808E-36   0.00000000000000E+00  -1.69210205721987E-16   0.00000000000000E+00
      0.00000000000000E+00   0.00000000000000E+00   0.00000000000000E+00  -2.15575793964203E-15  -6.09746358549717E-17
     -2.21673257549700E-15  -3.64499287147668E-16
      7.71415444606696E-01
      0.00000000000000E+00   0.00000000000000E+00   0.00000000000000E+00   0.00000000000000E+00  -2.60982799754141E-05
      0.00000000000000E+00  -2.60982799754141E-05   3.20449034030235E-17   1.92853861151674E+00   1.92853861151674E+00
      0.00000000000000E+00   0.00000000000000E+00   2.60982799778606E-05   0.00000000000000E+00   2.60982799778606E-05
      5.37432124642649E-16   0.00000000000000E+00   0.00000000000000E+00   0.00000000000000E+00   0.00000000000000E+00
     -5.25817399060509E-36   5.25817399060509E-36   0.00000000000000E+00  -2.01889568189172E-16   0.00000000000000E+00
      0.00000000000000E+00   0.00000000000000E+00   0.00000000000000E+00  -2.29350794919350E-15  -6.39434345039491E-17
     -2.35745138369745E-15  -3.89729014085767E-16
      8.71415444606696E-01
      0.00000000000000E+00   0.00000000000000E+00   0.00000000000000E+00   0.00000000000000E+00  -2.94984720696125E-05
      0.00000000000000E+00  -2.94984720696125E-05   2.83456629120144E-17   2.17853861151674E+00   2.17853861151674E+00
      0.00000000000000E+00   0.00000000000000E+00   2.94984720731348E-05   0.00000000000000E+00   2.94984720731348E-05
      5.95564974171638E-16   0.00000000000000E+00   0.00000000000000E+00   0.00000000000000E+00   0.00000000000000E+00
     -5.14194014399533E-36   5.14194014399533E-36   0.00000000000000E+00  -2.34260078701662E-16   0.00000000000000E+00
      0.00000000000000E+00   0.00000000000000E+00   0.00000000000000E+00  -2.40934811363731E-15  -6.63436312886236E-17
     -2.47569174492593E-15  -4.15023362313390E-16
      9.71415444606696E-01
      0.00000000000000E+00   0.00000000000000E+00   0.00000000000000E+00   0.00000000000000E+00  -3.29248391829739E-05
      0.00000000000000E+00  -3.29248391829739E-05   2.48000110529008E-17   2.42853861151674E+00   2.42853861151674E+00
      0.00000000000000E+00   0.00000000000000E+00   3.29248391844471E-05   0.00000000000000E+00   3.29248391844471E-05
      6.53182599375756E-16   0.00000000000000E+00   0.00000000000000E+00   0.00000000000000E+00   0.00000000000000E+00
     -5.21236529631243E-36   5.21236529631243E-36   0.00000000000000E+00  -2.66332289984206E-16   0.00000000000000E+00
      0.00000000000000E+00   0.00000000000000E+00   0.00000000000000E+00  -2.51290133000329E-15  -6.80879713562475E-17
     -2.58098930135954E-15  -4.40357848679978E-16
      1.00000000000000E+00
      0.00000000000000E+00   0.00000000000000E+00   0.00000000000000E+00   0.00000000000000E+00  -3.39077713280020E-05
      0.00000000000000E+00  -3.39077713280020E-05   2.38120016797691E-17   2.50000000000000E+00   2.50000000000000E+00
      0.00000000000000E+00   0.00000000000000E+00   3.39077713314242E-05   0.00000000000000E+00   3.39077713314242E-05
      6.69559107361201E-16   0.00000000000000E+00   0.00000000000000E+00   0.00000000000000E+00   0.00000000000000E+00
     -5.17203478042396E-36   5.17203478042396E-36   0.00000000000000E+00  -2.75446239023456E-16   0.00000000000000E+00
      0.00000000000000E+00   0.00000000000000E+00   0.00000000000000E+00  -2.54101580936615E-15  -6.84969091807595E-17
     -2.60951271854691E-15  -4.47604094715888E-16
}
