DF-ISE text

Info {
  version   = 1.0
  type      = xyplot
  datasets  = [
    "time"
    "source OuterVoltage" "source InnerVoltage" "source QuasiFermiPotential" "source DisplacementCurrent" "source eCurrent"
    "source hCurrent" "source TotalCurrent" "source Charge" "drain OuterVoltage" "drain InnerVoltage"
    "drain QuasiFermiPotential" "drain DisplacementCurrent" "drain eCurrent" "drain hCurrent" "drain TotalCurrent"
    "drain Charge" "gate OuterVoltage" "gate InnerVoltage" "gate QuasiFermiPotential" "gate DisplacementCurrent"
    "gate eCurrent" "gate hCurrent" "gate TotalCurrent" "gate Charge" "substrate OuterVoltage"
    "substrate InnerVoltage" "substrate QuasiFermiPotential" "substrate DisplacementCurrent" "substrate eCurrent" "substrate hCurrent"
    "substrate TotalCurrent" "substrate Charge" ]
  functions = [
    Time
    OuterVoltage InnerVoltage QuasiFermiPotential DisplacementCurrent eCurrent
    hCurrent TotalCurrent Charge OuterVoltage InnerVoltage
    QuasiFermiPotential DisplacementCurrent eCurrent hCurrent TotalCurrent
    Charge OuterVoltage InnerVoltage QuasiFermiPotential DisplacementCurrent
    eCurrent hCurrent TotalCurrent Charge OuterVoltage
    InnerVoltage QuasiFermiPotential DisplacementCurrent eCurrent hCurrent
    TotalCurrent Charge ]
}

Data {
      0.00000000000000E+00
      0.00000000000000E+00   0.00000000000000E+00   0.00000000000000E+00   0.00000000000000E+00  -5.62387690227401E-18
      0.00000000000000E+00  -5.62387690227401E-18   6.27911339554781E-17   0.00000000000000E+00   0.00000000000000E+00
      0.00000000000000E+00   0.00000000000000E+00   2.66267022184116E-18   0.00000000000000E+00   2.66267022184116E-18
      6.34871119743008E-17   0.00000000000000E+00   0.00000000000000E+00   0.00000000000000E+00   0.00000000000000E+00
     -3.11955728516798E-37   3.11955728516798E-37   0.00000000000000E+00   8.41695115055969E-17   0.00000000000000E+00
      0.00000000000000E+00   0.00000000000000E+00   0.00000000000000E+00   2.33111290810268E-19   4.14521707364112E-33
      2.33111290810272E-19  -2.10575732347073E-16
      1.00000000000000E-02
      0.00000000000000E+00   0.00000000000000E+00   0.00000000000000E+00   0.00000000000000E+00  -7.25625958857572E-07
      0.00000000000000E+00  -7.25625958857572E-07   6.21091932745452E-17   2.50000000000000E-02   2.50000000000000E-02
      0.00000000000000E+00   0.00000000000000E+00   7.25625959193541E-07   0.00000000000000E+00   7.25625959193541E-07
      6.69110855985163E-17   0.00000000000000E+00   0.00000000000000E+00   0.00000000000000E+00   0.00000000000000E+00
     -4.06974956004750E-37   4.06974956004750E-37   0.00000000000000E+00   7.80935474910384E-17   0.00000000000000E+00
      0.00000000000000E+00   0.00000000000000E+00   0.00000000000000E+00  -3.32508165532016E-16  -7.37889666529956E-18
     -3.39887062197316E-16  -2.07742720947801E-16
      2.46000000000000E-02
      0.00000000000000E+00   0.00000000000000E+00   0.00000000000000E+00   0.00000000000000E+00  -1.42213413992636E-06
      0.00000000000000E+00  -1.42213413992636E-06   6.12287160581975E-17   6.15000000000000E-02   6.15000000000000E-02
      0.00000000000000E+00   0.00000000000000E+00   1.42213414046417E-06   0.00000000000000E+00   1.42213414046417E-06
      7.21710029570270E-17   0.00000000000000E+00   0.00000000000000E+00   0.00000000000000E+00   0.00000000000000E+00
     -3.63746221557065E-37   3.63746221557065E-37   0.00000000000000E+00   7.02549035073556E-17   0.00000000000000E+00
      0.00000000000000E+00   0.00000000000000E+00   0.00000000000000E+00  -5.19573258640875E-16  -1.37968802491943E-17
     -5.33370138890069E-16  -2.05071117562307E-16
      4.59160000000000E-02
      0.00000000000000E+00   0.00000000000000E+00   0.00000000000000E+00   0.00000000000000E+00  -1.95241308823056E-06
      0.00000000000000E+00  -1.95241308823056E-06   6.01821166911107E-17   1.14790000000000E-01   1.14790000000000E-01
      0.00000000000000E+00   0.00000000000000E+00   1.95241308889411E-06   0.00000000000000E+00   1.95241308889411E-06
      8.04853500998267E-17   0.00000000000000E+00   0.00000000000000E+00   0.00000000000000E+00   0.00000000000000E+00
     -4.15512253890231E-37   4.15512253890231E-37   0.00000000000000E+00   6.11049027678739E-17   0.00000000000000E+00
      0.00000000000000E+00   0.00000000000000E+00   0.00000000000000E+00  -6.29969486613046E-16  -1.94042034920794E-17
     -6.49373690105125E-16  -2.04496096986366E-16
      7.67531466666667E-02
      0.00000000000000E+00   0.00000000000000E+00   0.00000000000000E+00   0.00000000000000E+00  -2.39929691600574E-06
      0.00000000000000E+00  -2.39929691600574E-06   5.89210001612253E-17   1.91882866666667E-01   1.91882866666667E-01
      0.00000000000000E+00   0.00000000000000E+00   2.39929691675584E-06   0.00000000000000E+00   2.39929691675584E-06
      9.33555454393983E-17   0.00000000000000E+00   0.00000000000000E+00   0.00000000000000E+00   0.00000000000000E+00
     -2.60372833489697E-37   2.60372833489697E-37   0.00000000000000E+00   5.06782325270723E-17   0.00000000000000E+00
      0.00000000000000E+00   0.00000000000000E+00   0.00000000000000E+00  -7.22803802092748E-16  -2.51950455373932E-17
     -7.47998847630141E-16  -2.07943008278492E-16
      1.20541894933333E-01
      0.00000000000000E+00   0.00000000000000E+00   0.00000000000000E+00   0.00000000000000E+00  -2.94976552105913E-06
      0.00000000000000E+00  -2.94976552105913E-06   5.72657292197477E-17   3.01354737333333E-01   3.01354737333333E-01
      0.00000000000000E+00   0.00000000000000E+00   2.94976552191303E-06   0.00000000000000E+00   2.94976552191303E-06
      1.11480128813148E-16   0.00000000000000E+00   0.00000000000000E+00   0.00000000000000E+00   0.00000000000000E+00
     -2.43222312459193E-37   2.43222312459193E-37   0.00000000000000E+00   3.73856379712249E-17   0.00000000000000E+00
      0.00000000000000E+00   0.00000000000000E+00   0.00000000000000E+00  -8.43972185987716E-16  -3.13258740564269E-17
     -8.75298060044143E-16  -2.14938687962681E-16
      1.82138067495111E-01
      0.00000000000000E+00   0.00000000000000E+00   0.00000000000000E+00   0.00000000000000E+00  -3.70172172088396E-06
      0.00000000000000E+00  -3.70172172088396E-06   5.50566826318325E-17   4.55345168737778E-01   4.55345168737778E-01
      0.00000000000000E+00   0.00000000000000E+00   3.70172172195891E-06   0.00000000000000E+00   3.70172172195891E-06
      1.35709418194142E-16   0.00000000000000E+00   0.00000000000000E+00   0.00000000000000E+00   0.00000000000000E+00
     -1.29163113906741E-37   1.29163113906741E-37   0.00000000000000E+00   1.95592780771005E-17   0.00000000000000E+00
      0.00000000000000E+00   0.00000000000000E+00   0.00000000000000E+00  -1.00630656466058E-15  -3.80825320685020E-17
     -1.04438909672908E-15  -2.25262293205743E-16
      2.68783350232012E-01
      0.00000000000000E+00   0.00000000000000E+00   0.00000000000000E+00   0.00000000000000E+00  -4.76975583093163E-06
      0.00000000000000E+00  -4.76975583093163E-06   5.21235057803526E-17   6.71958375580030E-01   6.71958375580030E-01
      0.00000000000000E+00   0.00000000000000E+00   4.76975583218381E-06   0.00000000000000E+00   4.76975583218381E-06
      1.68225660732847E-16   0.00000000000000E+00   0.00000000000000E+00   0.00000000000000E+00   0.00000000000000E+00
     -4.19835869129363E-37   4.19835869129363E-37   0.00000000000000E+00  -4.68453627899625E-18   0.00000000000000E+00
      0.00000000000000E+00   0.00000000000000E+00   0.00000000000000E+00  -8.11844220571856E-16  -4.54564436795434E-17
     -8.57300664251399E-16  -2.40141868614546E-16
      3.68783350232012E-01
      0.00000000000000E+00   0.00000000000000E+00   0.00000000000000E+00   0.00000000000000E+00  -6.03720965337580E-06
      0.00000000000000E+00  -6.03720965337580E-06   4.89632297142988E-17   9.21958375580030E-01   9.21958375580030E-01
      0.00000000000000E+00   0.00000000000000E+00   6.03720965485807E-06   0.00000000000000E+00   6.03720965485807E-06
      2.04166826563325E-16   0.00000000000000E+00   0.00000000000000E+00   0.00000000000000E+00   0.00000000000000E+00
     -3.40447631813500E-37   3.40447631813500E-37   0.00000000000000E+00  -3.17401288885917E-17   0.00000000000000E+00
      0.00000000000000E+00   0.00000000000000E+00   0.00000000000000E+00  -1.43788488078651E-15  -5.20638134420943E-17
     -1.48994869422860E-15  -2.57544267563058E-16
      4.68783350232012E-01
      0.00000000000000E+00   0.00000000000000E+00   0.00000000000000E+00   0.00000000000000E+00  -7.32746795417523E-06
      0.00000000000000E+00  -7.32746795417523E-06   4.60475360409435E-17   1.17195837558003E+00   1.17195837558003E+00
      0.00000000000000E+00   0.00000000000000E+00   7.32746795587043E-06   0.00000000000000E+00   7.32746795587043E-06
      2.39225228451980E-16   0.00000000000000E+00   0.00000000000000E+00   0.00000000000000E+00   0.00000000000000E+00
     -2.71620267841918E-37   2.71620267841918E-37   0.00000000000000E+00  -5.73086115970528E-17   0.00000000000000E+00
      0.00000000000000E+00   0.00000000000000E+00   0.00000000000000E+00  -1.63282788993329E-15  -5.72673726782013E-17
     -1.69009526261149E-15  -2.74981748118689E-16
      5.68783350232012E-01
      0.00000000000000E+00   0.00000000000000E+00   0.00000000000000E+00   0.00000000000000E+00  -8.59968584286946E-06
      0.00000000000000E+00  -8.59968584286946E-06   4.34013071777298E-17   1.42195837558003E+00   1.42195837558003E+00
      0.00000000000000E+00   0.00000000000000E+00   8.59968584486693E-06   0.00000000000000E+00   8.59968584486693E-06
      2.74043692584032E-16   0.00000000000000E+00   0.00000000000000E+00   0.00000000000000E+00   0.00000000000000E+00
     -3.58244848487520E-37   3.58244848487520E-37   0.00000000000000E+00  -8.02947955841850E-17   0.00000000000000E+00
      0.00000000000000E+00   0.00000000000000E+00   0.00000000000000E+00  -1.80135552156454E-15  -6.15024027965186E-17
     -1.86285792436106E-15  -2.92161966911220E-16
      6.68783350232012E-01
      0.00000000000000E+00   0.00000000000000E+00   0.00000000000000E+00   0.00000000000000E+00  -9.85305958571673E-06
      0.00000000000000E+00  -9.85305958571673E-06   4.09838745715155E-17   1.67195837558003E+00   1.67195837558003E+00
      0.00000000000000E+00   0.00000000000000E+00   9.85305958761197E-06   0.00000000000000E+00   9.85305958761197E-06
      3.07613637416287E-16   0.00000000000000E+00   0.00000000000000E+00   0.00000000000000E+00   0.00000000000000E+00
     -1.55567723944974E-37   1.55567723944974E-37   0.00000000000000E+00  -1.01390899600781E-16   0.00000000000000E+00
      0.00000000000000E+00   0.00000000000000E+00   0.00000000000000E+00  -1.94782785492263E-15  -6.49651708218279E-17
     -2.01279302574446E-15  -3.09079788959895E-16
      7.68783350232012E-01
      0.00000000000000E+00   0.00000000000000E+00   0.00000000000000E+00   0.00000000000000E+00  -1.10899678497604E-05
      0.00000000000000E+00  -1.10899678497604E-05   3.87564974637465E-17   1.92195837558003E+00   1.92195837558003E+00
      0.00000000000000E+00   0.00000000000000E+00   1.10899678519984E-05   0.00000000000000E+00   1.10899678519984E-05
      3.39952303376203E-16   0.00000000000000E+00   0.00000000000000E+00   0.00000000000000E+00   0.00000000000000E+00
     -4.37839948591500E-37   4.37839948591500E-37   0.00000000000000E+00  -1.21122027868941E-16   0.00000000000000E+00
      0.00000000000000E+00   0.00000000000000E+00   0.00000000000000E+00  -2.07734634761252E-15  -6.76618263937978E-17
     -2.14500817400632E-15  -3.25769187398528E-16
      8.68783350232012E-01
      0.00000000000000E+00   0.00000000000000E+00   0.00000000000000E+00   0.00000000000000E+00  -1.23124639821119E-05
      0.00000000000000E+00  -1.23124639821119E-05   3.66878499281187E-17   2.17195837558003E+00   2.17195837558003E+00
      0.00000000000000E+00   0.00000000000000E+00   1.23124639843568E-05   0.00000000000000E+00   1.23124639843568E-05
      3.71282347275097E-16   0.00000000000000E+00   0.00000000000000E+00   0.00000000000000E+00   0.00000000000000E+00
     -5.13693885575851E-37   5.13693885575851E-37   0.00000000000000E+00  -1.39802841623280E-16   0.00000000000000E+00
      0.00000000000000E+00   0.00000000000000E+00   0.00000000000000E+00  -2.19098581035961E-15  -7.00823846409880E-17
     -2.26106819500059E-15  -3.42262596553942E-16
      9.68783350232012E-01
      0.00000000000000E+00   0.00000000000000E+00   0.00000000000000E+00   0.00000000000000E+00  -1.35326231655075E-05
      0.00000000000000E+00  -1.35326231655075E-05   3.47398255697066E-17   2.42195837558003E+00   2.42195837558003E+00
      0.00000000000000E+00   0.00000000000000E+00   1.35326231679494E-05   0.00000000000000E+00   1.35326231679494E-05
      4.02022626813928E-16   0.00000000000000E+00   0.00000000000000E+00   0.00000000000000E+00   0.00000000000000E+00
     -3.58608887577234E-37   3.58608887577234E-37   0.00000000000000E+00  -1.57873808352542E-16   0.00000000000000E+00
      0.00000000000000E+00   0.00000000000000E+00   0.00000000000000E+00  -2.29426353073094E-15  -7.24295777232179E-17
     -2.36669310845416E-15  -3.58685902748261E-16
      1.00000000000000E+00
      0.00000000000000E+00   0.00000000000000E+00   0.00000000000000E+00   0.00000000000000E+00  -1.39152960665588E-05
      0.00000000000000E+00  -1.39152960665588E-05   3.41510538883005E-17   2.50000000000000E+00   2.50000000000000E+00
      0.00000000000000E+00   0.00000000000000E+00   1.39152960688554E-05   0.00000000000000E+00   1.39152960688554E-05
      4.11560612821668E-16   0.00000000000000E+00   0.00000000000000E+00   0.00000000000000E+00   0.00000000000000E+00
     -2.58335020030011E-37   2.58335020030011E-37   0.00000000000000E+00  -1.63450587716666E-16   0.00000000000000E+00
      0.00000000000000E+00   0.00000000000000E+00   0.00000000000000E+00  -2.32346774723520E-15  -7.31194223570424E-17
     -2.39658716959224E-15  -3.63818643248769E-16
}
