DF-ISE text

Info {
  version   = 1.0
  type      = xyplot
  datasets  = [
    "time"
    "source OuterVoltage" "source InnerVoltage" "source QuasiFermiPotential" "source DisplacementCurrent" "source eCurrent"
    "source hCurrent" "source TotalCurrent" "source Charge" "drain OuterVoltage" "drain InnerVoltage"
    "drain QuasiFermiPotential" "drain DisplacementCurrent" "drain eCurrent" "drain hCurrent" "drain TotalCurrent"
    "drain Charge" "gate OuterVoltage" "gate InnerVoltage" "gate QuasiFermiPotential" "gate DisplacementCurrent"
    "gate eCurrent" "gate hCurrent" "gate TotalCurrent" "gate Charge" "substrate OuterVoltage"
    "substrate InnerVoltage" "substrate QuasiFermiPotential" "substrate DisplacementCurrent" "substrate eCurrent" "substrate hCurrent"
    "substrate TotalCurrent" "substrate Charge" ]
  functions = [
    Time
    OuterVoltage InnerVoltage QuasiFermiPotential DisplacementCurrent eCurrent
    hCurrent TotalCurrent Charge OuterVoltage InnerVoltage
    QuasiFermiPotential DisplacementCurrent eCurrent hCurrent TotalCurrent
    Charge OuterVoltage InnerVoltage QuasiFermiPotential DisplacementCurrent
    eCurrent hCurrent TotalCurrent Charge OuterVoltage
    InnerVoltage QuasiFermiPotential DisplacementCurrent eCurrent hCurrent
    TotalCurrent Charge ]
}

Data {
      0.00000000000000E+00
      0.00000000000000E+00   0.00000000000000E+00   0.00000000000000E+00   0.00000000000000E+00  -3.95949545093992E-17
      0.00000000000000E+00  -3.95949545093992E-17   6.98759277556855E-17   0.00000000000000E+00   0.00000000000000E+00
      0.00000000000000E+00   0.00000000000000E+00   3.36660382934194E-16   0.00000000000000E+00   3.36660382934194E-16
      7.15410017858586E-17   0.00000000000000E+00   0.00000000000000E+00   0.00000000000000E+00   0.00000000000000E+00
     -8.48217325922820E-36   8.48217325922820E-36   0.00000000000000E+00   7.58959543996979E-17   0.00000000000000E+00
      0.00000000000000E+00   0.00000000000000E+00   0.00000000000000E+00   7.21612680597729E-20  -1.41145751311166E-31
      7.21612680596317E-20  -2.19100417969880E-16
      1.00000000000000E-02
      0.00000000000000E+00   0.00000000000000E+00   0.00000000000000E+00   0.00000000000000E+00  -1.13408260432504E-06
      0.00000000000000E+00  -1.13408260432504E-06   6.89177429894111E-17   2.50000000000000E-02   2.50000000000000E-02
      0.00000000000000E+00   0.00000000000000E+00   1.13408260563231E-06   0.00000000000000E+00   1.13408260563231E-06
      7.61260054141473E-17   0.00000000000000E+00   0.00000000000000E+00   0.00000000000000E+00   0.00000000000000E+00
     -8.49422751623539E-36   8.49422751623539E-36   0.00000000000000E+00   6.93903440763272E-17   0.00000000000000E+00
      0.00000000000000E+00   0.00000000000000E+00   0.00000000000000E+00  -3.69061563285191E-16  -6.15559936893865E-18
     -3.75217162654130E-16  -2.16435521949948E-16
      2.46000000000000E-02
      0.00000000000000E+00   0.00000000000000E+00   0.00000000000000E+00   0.00000000000000E+00  -2.21275673807277E-06
      0.00000000000000E+00  -2.21275673807277E-06   6.76946482806015E-17   6.15000000000000E-02   6.15000000000000E-02
      0.00000000000000E+00   0.00000000000000E+00   2.21275673797692E-06   0.00000000000000E+00   2.21275673797692E-06
      8.30971587933308E-17   0.00000000000000E+00   0.00000000000000E+00   0.00000000000000E+00   0.00000000000000E+00
     -8.43638713769201E-36   8.43638713769201E-36   0.00000000000000E+00   6.07953793867610E-17   0.00000000000000E+00
      0.00000000000000E+00   0.00000000000000E+00   0.00000000000000E+00  -5.79108917476049E-16  -1.20453798810551E-17
     -5.91154297357104E-16  -2.13902277074907E-16
      4.59160000000000E-02
      0.00000000000000E+00   0.00000000000000E+00   0.00000000000000E+00   0.00000000000000E+00  -3.07374354043811E-06
      0.00000000000000E+00  -3.07374354043811E-06   6.62257169767858E-17   1.14790000000000E-01   1.14790000000000E-01
      0.00000000000000E+00   0.00000000000000E+00   3.07374354088466E-06   0.00000000000000E+00   3.07374354088466E-06
      9.40652417189246E-17   0.00000000000000E+00   0.00000000000000E+00   0.00000000000000E+00   0.00000000000000E+00
     -8.48041911105193E-36   8.48041911105193E-36   0.00000000000000E+00   5.02409129682272E-17   0.00000000000000E+00
      0.00000000000000E+00   0.00000000000000E+00   0.00000000000000E+00  -6.86047172433893E-16  -1.75727982697959E-17
     -7.03619970703689E-16  -2.13308306644727E-16
      7.67531466666667E-02
      0.00000000000000E+00   0.00000000000000E+00   0.00000000000000E+00   0.00000000000000E+00  -3.87779394515433E-06
      0.00000000000000E+00  -3.87779394515433E-06   6.44209687376440E-17   1.91882866666667E-01   1.91882866666667E-01
      0.00000000000000E+00   0.00000000000000E+00   3.87779394545497E-06   0.00000000000000E+00   3.87779394545497E-06
      1.11512240284240E-16   0.00000000000000E+00   0.00000000000000E+00   0.00000000000000E+00   0.00000000000000E+00
     -8.48922322835490E-36   8.48922322835490E-36   0.00000000000000E+00   3.75151689756447E-17   0.00000000000000E+00
      0.00000000000000E+00   0.00000000000000E+00   0.00000000000000E+00  -7.89119711876037E-16  -2.31761007037317E-17
     -8.12295812579769E-16  -2.16900569807834E-16
      1.20953056888889E-01
      0.00000000000000E+00   0.00000000000000E+00   0.00000000000000E+00   0.00000000000000E+00  -4.91433753718667E-06
      0.00000000000000E+00  -4.91433753718667E-06   6.20399611126263E-17   3.02382642222222E-01   3.02382642222222E-01
      0.00000000000000E+00   0.00000000000000E+00   4.91433753779593E-06   0.00000000000000E+00   4.91433753779593E-06
      1.38033996679756E-16   0.00000000000000E+00   0.00000000000000E+00   0.00000000000000E+00   0.00000000000000E+00
     -8.25369064996411E-36   8.25369064996411E-36   0.00000000000000E+00   2.09467510245623E-17   0.00000000000000E+00
      0.00000000000000E+00   0.00000000000000E+00   0.00000000000000E+00  -9.25787319737724E-16  -2.93465717087614E-17
     -9.55133891446486E-16  -2.25459330729369E-16
      1.83127597268148E-01
      0.00000000000000E+00   0.00000000000000E+00   0.00000000000000E+00   0.00000000000000E+00  -6.36322626042411E-06
      0.00000000000000E+00  -6.36322626042411E-06   5.88994078369964E-17   4.57818993170370E-01   4.57818993170370E-01
      0.00000000000000E+00   0.00000000000000E+00   6.36322626152582E-06   0.00000000000000E+00   6.36322626152582E-06
      1.75718638619102E-16   0.00000000000000E+00   0.00000000000000E+00   0.00000000000000E+00   0.00000000000000E+00
     -8.26361649886243E-36   8.26361649886243E-36   0.00000000000000E+00  -1.19747279510802E-18   0.00000000000000E+00
      0.00000000000000E+00   0.00000000000000E+00   0.00000000000000E+00  -1.10550392106246E-15  -3.60888622149079E-17
     -1.14159278327737E-15  -2.39279818086225E-16
      2.71415444606696E-01
      0.00000000000000E+00   0.00000000000000E+00   0.00000000000000E+00   0.00000000000000E+00  -8.49291311914431E-06
      0.00000000000000E+00  -8.49291311914431E-06   5.47403647619985E-17   6.78538611516741E-01   6.78538611516741E-01
      0.00000000000000E+00   0.00000000000000E+00   8.49291311977436E-06   0.00000000000000E+00   8.49291311977436E-06
      2.28189715765706E-16   0.00000000000000E+00   0.00000000000000E+00   0.00000000000000E+00   0.00000000000000E+00
     -8.48023024581581E-36   8.48023024581581E-36   0.00000000000000E+00  -3.16505895523054E-17   0.00000000000000E+00
      0.00000000000000E+00   0.00000000000000E+00   0.00000000000000E+00  -1.33889984209338E-15  -4.33914866253945E-17
     -1.38229132871878E-15  -2.59215012450130E-16
      3.71415444606696E-01
      0.00000000000000E+00   0.00000000000000E+00   0.00000000000000E+00   0.00000000000000E+00  -1.10292083404550E-05
      0.00000000000000E+00  -1.10292083404550E-05   5.03766618709330E-17   9.28538611516741E-01   9.28538611516741E-01
      0.00000000000000E+00   0.00000000000000E+00   1.10292083436095E-05   0.00000000000000E+00   1.10292083436095E-05
      2.86788812107676E-16   0.00000000000000E+00   0.00000000000000E+00   0.00000000000000E+00   0.00000000000000E+00
     -8.21159089144826E-36   8.21159089144826E-36   0.00000000000000E+00  -6.54101864953837E-17   0.00000000000000E+00
      0.00000000000000E+00   0.00000000000000E+00   0.00000000000000E+00  -1.57029934977623E-15  -4.97309246030733E-17
     -1.62003027437931E-15  -2.82123535268303E-16
      4.71415444606696E-01
      0.00000000000000E+00   0.00000000000000E+00   0.00000000000000E+00   0.00000000000000E+00  -1.36851333400252E-05
      0.00000000000000E+00  -1.36851333400252E-05   4.63225016130966E-17   1.17853861151674E+00   1.17853861151674E+00
      0.00000000000000E+00   0.00000000000000E+00   1.36851333406896E-05   0.00000000000000E+00   1.36851333406896E-05
      3.44818748537101E-16   0.00000000000000E+00   0.00000000000000E+00   0.00000000000000E+00   0.00000000000000E+00
     -8.27049231639465E-36   8.27049231639465E-36   0.00000000000000E+00  -9.86647425247272E-17   0.00000000000000E+00
      0.00000000000000E+00   0.00000000000000E+00   0.00000000000000E+00  -1.77049606023925E-15  -5.47558478990280E-17
     -1.82525190813828E-15  -3.05367599291431E-16
      5.71415444606696E-01
      0.00000000000000E+00   0.00000000000000E+00   0.00000000000000E+00   0.00000000000000E+00  -1.64378245707722E-05
      0.00000000000000E+00  -1.64378245707722E-05   4.25319417666846E-17   1.42853861151674E+00   1.42853861151674E+00
      0.00000000000000E+00   0.00000000000000E+00   1.64378245733721E-05   0.00000000000000E+00   1.64378245733721E-05
      4.02324727420483E-16   0.00000000000000E+00   0.00000000000000E+00   0.00000000000000E+00   0.00000000000000E+00
     -8.37647043887472E-36   8.37647043887472E-36   0.00000000000000E+00  -1.31502265277581E-16   0.00000000000000E+00
      0.00000000000000E+00   0.00000000000000E+00   0.00000000000000E+00  -1.94540306053578E-15  -5.88191435307393E-17
     -2.00422220406652E-15  -3.28864206607023E-16
      6.71415444606696E-01
      0.00000000000000E+00   0.00000000000000E+00   0.00000000000000E+00   0.00000000000000E+00  -1.92655190186711E-05
      0.00000000000000E+00  -1.92655190186711E-05   3.89673069683034E-17   1.67853861151674E+00   1.67853861151674E+00
      0.00000000000000E+00   0.00000000000000E+00   1.92655190205949E-05   0.00000000000000E+00   1.92655190205949E-05
      4.59331920136659E-16   0.00000000000000E+00   0.00000000000000E+00   0.00000000000000E+00   0.00000000000000E+00
     -8.34991100119856E-36   8.34991100119856E-36   0.00000000000000E+00  -1.63963203150165E-16   0.00000000000000E+00
      0.00000000000000E+00   0.00000000000000E+00   0.00000000000000E+00  -2.09841164948989E-15  -6.19605178322143E-17
     -2.16037216732210E-15  -3.52565468267441E-16
      7.71415444606696E-01
      0.00000000000000E+00   0.00000000000000E+00   0.00000000000000E+00   0.00000000000000E+00  -2.21510931677156E-05
      0.00000000000000E+00  -2.21510931677156E-05   3.55967552152028E-17   1.92853861151674E+00   1.92853861151674E+00
      0.00000000000000E+00   0.00000000000000E+00   2.21510931699947E-05   0.00000000000000E+00   2.21510931699947E-05
      5.15850555272910E-16   0.00000000000000E+00   0.00000000000000E+00   0.00000000000000E+00   0.00000000000000E+00
     -8.36127683263781E-36   8.36127683263781E-36   0.00000000000000E+00  -1.96070190062252E-16   0.00000000000000E+00
      0.00000000000000E+00   0.00000000000000E+00   0.00000000000000E+00  -2.22457444070941E-15  -6.48957596164211E-17
     -2.28947020032583E-15  -3.76431936748802E-16
      8.71415444606696E-01
      0.00000000000000E+00   0.00000000000000E+00   0.00000000000000E+00   0.00000000000000E+00  -2.50807551688013E-05
      0.00000000000000E+00  -2.50807551688013E-05   3.23941932910552E-17   2.17853861151674E+00   2.17853861151674E+00
      0.00000000000000E+00   0.00000000000000E+00   2.50807551735320E-05   0.00000000000000E+00   2.50807551735320E-05
      5.71886069218989E-16   0.00000000000000E+00   0.00000000000000E+00   0.00000000000000E+00   0.00000000000000E+00
     -8.14185987958033E-36   8.14185987958033E-36   0.00000000000000E+00  -2.27837102656188E-16   0.00000000000000E+00
      0.00000000000000E+00   0.00000000000000E+00   0.00000000000000E+00  -2.35305803005817E-15  -6.75638031960486E-17
     -2.42062183325422E-15  -4.00432635188880E-16
      9.71415444606696E-01
      0.00000000000000E+00   0.00000000000000E+00   0.00000000000000E+00   0.00000000000000E+00  -2.80441173569394E-05
      0.00000000000000E+00  -2.80441173569394E-05   2.93376303218303E-17   2.42853861151674E+00   2.42853861151674E+00
      0.00000000000000E+00   0.00000000000000E+00   2.80441173567553E-05   0.00000000000000E+00   2.80441173567553E-05
      6.27469734541208E-16   0.00000000000000E+00   0.00000000000000E+00   0.00000000000000E+00   0.00000000000000E+00
     -8.39839552505799E-36   8.39839552505799E-36   0.00000000000000E+00  -2.59294733217060E-16   0.00000000000000E+00
      0.00000000000000E+00   0.00000000000000E+00   0.00000000000000E+00  -2.46057344181330E-15  -6.96327088830365E-17
     -2.53020615069633E-15  -4.24544405776057E-16
      1.00000000000000E+00
      0.00000000000000E+00   0.00000000000000E+00   0.00000000000000E+00   0.00000000000000E+00  -2.88961604456934E-05
      0.00000000000000E+00  -2.88961604456934E-05   2.84880771513691E-17   2.50000000000000E+00   2.50000000000000E+00
      0.00000000000000E+00   0.00000000000000E+00   2.88961604466795E-05   0.00000000000000E+00   2.88961604466795E-05
      6.43284984019753E-16   0.00000000000000E+00   0.00000000000000E+00   0.00000000000000E+00   0.00000000000000E+00
     -8.38477871135341E-36   8.38477871135341E-36   0.00000000000000E+00  -2.68237663163074E-16   0.00000000000000E+00
      0.00000000000000E+00   0.00000000000000E+00   0.00000000000000E+00  -2.48918832826973E-15  -7.01166626586878E-17
     -2.55930499092842E-15  -4.31455402950974E-16
}
