DF-ISE text

Info {
  version   = 1.0
  type      = xyplot
  datasets  = [
    "time"
    "source OuterVoltage" "source InnerVoltage" "source QuasiFermiPotential" "source DisplacementCurrent" "source eCurrent"
    "source hCurrent" "source TotalCurrent" "source Charge" "drain OuterVoltage" "drain InnerVoltage"
    "drain QuasiFermiPotential" "drain DisplacementCurrent" "drain eCurrent" "drain hCurrent" "drain TotalCurrent"
    "drain Charge" "gate OuterVoltage" "gate InnerVoltage" "gate QuasiFermiPotential" "gate DisplacementCurrent"
    "gate eCurrent" "gate hCurrent" "gate TotalCurrent" "gate Charge" "substrate OuterVoltage"
    "substrate InnerVoltage" "substrate QuasiFermiPotential" "substrate DisplacementCurrent" "substrate eCurrent" "substrate hCurrent"
    "substrate TotalCurrent" "substrate Charge" ]
  functions = [
    Time
    OuterVoltage InnerVoltage QuasiFermiPotential DisplacementCurrent eCurrent
    hCurrent TotalCurrent Charge OuterVoltage InnerVoltage
    QuasiFermiPotential DisplacementCurrent eCurrent hCurrent TotalCurrent
    Charge OuterVoltage InnerVoltage QuasiFermiPotential DisplacementCurrent
    eCurrent hCurrent TotalCurrent Charge OuterVoltage
    InnerVoltage QuasiFermiPotential DisplacementCurrent eCurrent hCurrent
    TotalCurrent Charge ]
}

Data {
      0.00000000000000E+00
      0.00000000000000E+00   0.00000000000000E+00   0.00000000000000E+00   0.00000000000000E+00   7.89232095810476E-17
      0.00000000000000E+00   7.89232095810476E-17   9.27634930620908E-19   0.00000000000000E+00   0.00000000000000E+00
      0.00000000000000E+00   0.00000000000000E+00   3.58144524817542E-16   0.00000000000000E+00   3.58144524817542E-16
      5.17689813679836E-18   1.00000000000000E+00   1.00000000000000E+00   0.00000000000000E+00   0.00000000000000E+00
      4.58941752406797E-36  -4.58941752406797E-36   0.00000000000000E+00   7.23325717883782E-16   0.00000000000000E+00
      0.00000000000000E+00   0.00000000000000E+00   0.00000000000000E+00   3.54735088751233E-18   1.54726655527155E-31
      3.54735088751248E-18  -7.15941960451625E-16
      1.00000000000000E-02
      0.00000000000000E+00   0.00000000000000E+00   0.00000000000000E+00   0.00000000000000E+00  -8.51230990150272E-06
      0.00000000000000E+00  -8.51230990150272E-06   5.99081551245382E-20   2.50000000000000E-02   2.50000000000000E-02
      0.00000000000000E+00   0.00000000000000E+00   8.51230990137424E-06   0.00000000000000E+00   8.51230990137424E-06
      8.80455444085887E-18   1.00000000000000E+00   1.00000000000000E+00   0.00000000000000E+00   0.00000000000000E+00
      5.06899709019896E-36  -5.06899709019896E-36   0.00000000000000E+00   7.14839171858698E-16   0.00000000000000E+00
      0.00000000000000E+00   0.00000000000000E+00   0.00000000000000E+00  -3.55687513224284E-16  -6.28273014582293E-18
     -3.61970243370107E-16  -7.10413211248946E-16
      2.46000000000000E-02
      0.00000000000000E+00   0.00000000000000E+00   0.00000000000000E+00   0.00000000000000E+00  -1.95630875813008E-05
      0.00000000000000E+00  -1.95630875813008E-05  -1.17650470800600E-18   6.15000000000000E-02   6.15000000000000E-02
      0.00000000000000E+00   0.00000000000000E+00   1.95630875823079E-05   0.00000000000000E+00   1.95630875823079E-05
      1.41785679583303E-17   1.00000000000000E+00   1.00000000000000E+00   0.00000000000000E+00   0.00000000000000E+00
      5.08218481785880E-36  -5.08218481785880E-36   0.00000000000000E+00   7.02590453012392E-16   0.00000000000000E+00
      0.00000000000000E+00   0.00000000000000E+00   0.00000000000000E+00  -5.68190717457937E-16  -1.25907584294792E-17
     -5.80781475887416E-16  -7.02591377175097E-16
      4.59160000000000E-02
      0.00000000000000E+00   0.00000000000000E+00   0.00000000000000E+00   0.00000000000000E+00  -3.30027261518164E-05
      0.00000000000000E+00  -3.30027261518164E-05  -2.90231796780567E-18   1.14790000000000E-01   1.14790000000000E-01
      0.00000000000000E+00   0.00000000000000E+00   3.30027261537414E-05   0.00000000000000E+00   3.30027261537414E-05
      2.22052860631220E-17   1.00000000000000E+00   1.00000000000000E+00   0.00000000000000E+00   0.00000000000000E+00
      5.14320549374875E-36  -5.14320549374875E-36   0.00000000000000E+00   6.85089603205219E-16   0.00000000000000E+00
      0.00000000000000E+00   0.00000000000000E+00   0.00000000000000E+00  -6.95468909936620E-16  -1.90281135930510E-17
     -7.14497023529671E-16  -6.91814636494559E-16
      7.70373600000000E-02
      0.00000000000000E+00   0.00000000000000E+00   0.00000000000000E+00   0.00000000000000E+00  -4.78849623893199E-05
      0.00000000000000E+00  -4.78849623893199E-05  -5.21513531217460E-18   1.92593400000000E-01   1.92593400000000E-01
      0.00000000000000E+00   0.00000000000000E+00   4.78849623904041E-05   0.00000000000000E+00   4.78849623904041E-05
      3.43760194346152E-17   1.00000000000000E+00   1.00000000000000E+00   0.00000000000000E+00   0.00000000000000E+00
      5.01070023049145E-36  -5.01070023049145E-36   0.00000000000000E+00   6.60639058785839E-16   0.00000000000000E+00
      0.00000000000000E+00   0.00000000000000E+00   0.00000000000000E+00  -8.17785702681175E-16  -2.60630728837532E-17
     -8.43848775564928E-16  -6.77841717786185E-16
      1.21644642666667E-01
      0.00000000000000E+00   0.00000000000000E+00   0.00000000000000E+00   0.00000000000000E+00  -6.20049422931466E-05
      0.00000000000000E+00  -6.20049422931466E-05  -8.03662837302096E-18   3.04111606666667E-01   3.04111606666667E-01
      0.00000000000000E+00   0.00000000000000E+00   6.20049422941031E-05   0.00000000000000E+00   6.20049422941031E-05
      5.30864081701940E-17   1.00000000000000E+00   1.00000000000000E+00   0.00000000000000E+00   0.00000000000000E+00
      4.97568606641107E-36  -4.97568606641107E-36   0.00000000000000E+00   6.28812557095925E-16   0.00000000000000E+00
      0.00000000000000E+00   0.00000000000000E+00   0.00000000000000E+00  -9.71742612954174E-16  -3.37504384656233E-17
     -1.00549305141980E-15  -6.62796463196174E-16
      1.85581747822222E-01
      0.00000000000000E+00   0.00000000000000E+00   0.00000000000000E+00   0.00000000000000E+00  -7.31851315538231E-05
      0.00000000000000E+00  -7.31851315538231E-05  -1.11118382941537E-17   4.63954369555555E-01   4.63954369555555E-01
      0.00000000000000E+00   0.00000000000000E+00   7.31851315574942E-05   0.00000000000000E+00   7.31851315574942E-05
      8.40901004158529E-17   1.00000000000000E+00   1.00000000000000E+00   0.00000000000000E+00   0.00000000000000E+00
      5.02571051393654E-36  -5.02571051393654E-36   0.00000000000000E+00   5.91835972512948E-16   0.00000000000000E+00
      0.00000000000000E+00   0.00000000000000E+00   0.00000000000000E+00  -1.15901185429129E-15  -4.16790415205868E-17
     -1.20069089581188E-15  -6.55039415530781E-16
      2.75519942407704E-01
      0.00000000000000E+00   0.00000000000000E+00   0.00000000000000E+00   0.00000000000000E+00  -8.17747529954840E-05
      0.00000000000000E+00  -8.17747529954840E-05  -1.43295148347504E-17   6.88799856019259E-01   6.88799856019259E-01
      0.00000000000000E+00   0.00000000000000E+00   8.17747529955452E-05   0.00000000000000E+00   8.17747529955452E-05
      1.33754961895539E-16   1.00000000000000E+00   1.00000000000000E+00   0.00000000000000E+00   0.00000000000000E+00
      4.99060449104367E-36  -4.99060449104367E-36   0.00000000000000E+00   5.52467685357900E-16   0.00000000000000E+00
      0.00000000000000E+00   0.00000000000000E+00   0.00000000000000E+00  -1.38935178577455E-15  -4.93848285245114E-17
     -1.43873661429906E-15  -6.63976679060117E-16
      3.75519942407704E-01
      0.00000000000000E+00   0.00000000000000E+00   0.00000000000000E+00   0.00000000000000E+00  -8.86758728581002E-05
      0.00000000000000E+00  -8.86758728581002E-05  -1.73150523200305E-17   9.38799856019259E-01   9.38799856019259E-01
      0.00000000000000E+00   0.00000000000000E+00   8.86758728593669E-05   0.00000000000000E+00   8.86758728593669E-05
      1.90010048825372E-16   1.00000000000000E+00   1.00000000000000E+00   0.00000000000000E+00   0.00000000000000E+00
      5.00587215258109E-36  -5.00587215258109E-36   0.00000000000000E+00   5.14674929277991E-16   0.00000000000000E+00
      0.00000000000000E+00   0.00000000000000E+00   0.00000000000000E+00  -1.27040977663880E-15  -5.55897592842980E-17
     -1.32599953592310E-15  -6.81580765496742E-16
      4.75519942407704E-01
      0.00000000000000E+00   0.00000000000000E+00   0.00000000000000E+00   0.00000000000000E+00  -9.45218108889307E-05
      0.00000000000000E+00  -9.45218108889307E-05  -1.99639640443540E-17   1.18879985601926E+00   1.18879985601926E+00
      0.00000000000000E+00   0.00000000000000E+00   9.45218108928913E-05   0.00000000000000E+00   9.45218108928913E-05
      2.46899070010294E-16   1.00000000000000E+00   1.00000000000000E+00   0.00000000000000E+00   0.00000000000000E+00
      5.01542966153690E-36  -5.01542966153690E-36   0.00000000000000E+00   4.79098078783456E-16   0.00000000000000E+00
      0.00000000000000E+00   0.00000000000000E+00   0.00000000000000E+00  -1.60797707834251E-15  -6.02896505688285E-17
     -1.66826672891134E-15  -7.02417007301128E-16
      5.75519942407704E-01
      0.00000000000000E+00   0.00000000000000E+00   0.00000000000000E+00   0.00000000000000E+00  -9.97953500159178E-05
      0.00000000000000E+00  -9.97953500159178E-05  -2.23771243647534E-17   1.43879985601926E+00   1.43879985601926E+00
      0.00000000000000E+00   0.00000000000000E+00   9.97953500223113E-05   0.00000000000000E+00   9.97953500223113E-05
      3.04008471677536E-16   1.00000000000000E+00   1.00000000000000E+00   0.00000000000000E+00   0.00000000000000E+00
      4.94064597628702E-36  -4.94064597628702E-36   0.00000000000000E+00   4.44572786173356E-16   0.00000000000000E+00
      0.00000000000000E+00   0.00000000000000E+00   0.00000000000000E+00   1.69686126882465E-15  -6.41638249981170E-17
      1.63269744382653E-15  -7.24803886892667E-16
      6.75519942407704E-01
      0.00000000000000E+00   0.00000000000000E+00   0.00000000000000E+00   0.00000000000000E+00  -1.04686355915786E-04
      0.00000000000000E+00  -1.04686355915786E-04  -2.46057822952151E-17   1.68879985601926E+00   1.68879985601926E+00
      0.00000000000000E+00   0.00000000000000E+00   1.04686355914007E-04   0.00000000000000E+00   1.04686355914007E-04
      3.61119783079015E-16   1.00000000000000E+00   1.00000000000000E+00   0.00000000000000E+00   0.00000000000000E+00
      4.91819473740327E-36  -4.91819473740327E-36   0.00000000000000E+00   4.10787519857989E-16   0.00000000000000E+00
      0.00000000000000E+00   0.00000000000000E+00   0.00000000000000E+00  -2.11116706170145E-15  -6.70545154842275E-17
     -2.17822157718568E-15  -7.48171023111457E-16
      7.75519942407704E-01
      0.00000000000000E+00   0.00000000000000E+00   0.00000000000000E+00   0.00000000000000E+00  -1.09292246828770E-04
      0.00000000000000E+00  -1.09292246828770E-04  -2.66833679241903E-17   1.93879985601926E+00   1.93879985601926E+00
      0.00000000000000E+00   0.00000000000000E+00   1.09292246830880E-04   0.00000000000000E+00   1.09292246830880E-04
      4.18080881192164E-16   1.00000000000000E+00   1.00000000000000E+00   0.00000000000000E+00   0.00000000000000E+00
      4.90544767853810E-36  -4.90544767853810E-36   0.00000000000000E+00   3.77650316963365E-16   0.00000000000000E+00
      0.00000000000000E+00   0.00000000000000E+00   0.00000000000000E+00  -2.24654080769397E-15  -6.95952233669475E-17
     -2.31613603106091E-15  -7.72254782474876E-16
      8.75519942407704E-01
      0.00000000000000E+00   0.00000000000000E+00   0.00000000000000E+00   0.00000000000000E+00  -1.13676851661291E-04
      0.00000000000000E+00  -1.13676851661291E-04  -2.86355113692142E-17   2.18879985601926E+00   2.18879985601926E+00
      0.00000000000000E+00   0.00000000000000E+00   1.13676851660332E-04   0.00000000000000E+00   1.13676851660332E-04
      4.74729589362542E-16   1.00000000000000E+00   1.00000000000000E+00   0.00000000000000E+00   0.00000000000000E+00
      4.84716589862453E-36  -4.84716589862453E-36   0.00000000000000E+00   3.45088656725693E-16   0.00000000000000E+00
      0.00000000000000E+00   0.00000000000000E+00   0.00000000000000E+00  -2.32571983237875E-15  -7.20286641733284E-17
     -2.39774849655208E-15  -7.96809054387027E-16
      9.75519942407704E-01
      0.00000000000000E+00   0.00000000000000E+00   0.00000000000000E+00   0.00000000000000E+00  -1.17880663192706E-04
      0.00000000000000E+00  -1.17880663192706E-04  -3.04813232949030E-17   2.43879985601926E+00   2.43879985601926E+00
      0.00000000000000E+00   0.00000000000000E+00   1.17880663195842E-04   0.00000000000000E+00   1.17880663195842E-04
      5.31015106475238E-16   1.00000000000000E+00   1.00000000000000E+00   0.00000000000000E+00   0.00000000000000E+00
      5.02655418083380E-36  -5.02655418083380E-36   0.00000000000000E+00   3.13059909628366E-16   0.00000000000000E+00
      0.00000000000000E+00   0.00000000000000E+00   0.00000000000000E+00  -2.44922752670791E-15  -7.40190850540034E-17
     -2.52324661176191E-15  -8.21730785890246E-16
      1.00000000000000E+00
      0.00000000000000E+00   0.00000000000000E+00   0.00000000000000E+00   0.00000000000000E+00  -1.18886337415748E-04
      0.00000000000000E+00  -1.18886337415748E-04  -3.09189355149907E-17   2.50000000000000E+00   2.50000000000000E+00
      0.00000000000000E+00   0.00000000000000E+00   1.18886337420015E-04   0.00000000000000E+00   1.18886337420015E-04
      5.44743512420610E-16   1.00000000000000E+00   1.00000000000000E+00   0.00000000000000E+00   0.00000000000000E+00
      5.15992679137916E-36  -5.15992679137916E-36   0.00000000000000E+00   3.05288668797384E-16   0.00000000000000E+00
      0.00000000000000E+00   0.00000000000000E+00   0.00000000000000E+00  -2.48917987975582E-15  -7.44182561703458E-17
     -2.56359813592616E-15  -8.27878934603157E-16
}
