DF-ISE text

Info {
  version   = 1.0
  type      = xyplot
  datasets  = [
    "time"
    "source OuterVoltage" "source InnerVoltage" "source QuasiFermiPotential" "source DisplacementCurrent" "source eCurrent"
    "source hCurrent" "source TotalCurrent" "source Charge" "drain OuterVoltage" "drain InnerVoltage"
    "drain QuasiFermiPotential" "drain DisplacementCurrent" "drain eCurrent" "drain hCurrent" "drain TotalCurrent"
    "drain Charge" "gate OuterVoltage" "gate InnerVoltage" "gate QuasiFermiPotential" "gate DisplacementCurrent"
    "gate eCurrent" "gate hCurrent" "gate TotalCurrent" "gate Charge" "substrate OuterVoltage"
    "substrate InnerVoltage" "substrate QuasiFermiPotential" "substrate DisplacementCurrent" "substrate eCurrent" "substrate hCurrent"
    "substrate TotalCurrent" "substrate Charge" ]
  functions = [
    Time
    OuterVoltage InnerVoltage QuasiFermiPotential DisplacementCurrent eCurrent
    hCurrent TotalCurrent Charge OuterVoltage InnerVoltage
    QuasiFermiPotential DisplacementCurrent eCurrent hCurrent TotalCurrent
    Charge OuterVoltage InnerVoltage QuasiFermiPotential DisplacementCurrent
    eCurrent hCurrent TotalCurrent Charge OuterVoltage
    InnerVoltage QuasiFermiPotential DisplacementCurrent eCurrent hCurrent
    TotalCurrent Charge ]
}

Data {
      0.00000000000000E+00
      0.00000000000000E+00   0.00000000000000E+00   0.00000000000000E+00   0.00000000000000E+00   2.46721914579456E-17
      0.00000000000000E+00   2.46721914579456E-17   7.50580993529872E-17   0.00000000000000E+00   0.00000000000000E+00
      0.00000000000000E+00   0.00000000000000E+00   2.74854469105511E-18   0.00000000000000E+00   2.74854469105511E-18
      7.45211681862526E-17   0.00000000000000E+00   0.00000000000000E+00   0.00000000000000E+00   0.00000000000000E+00
     -1.03389863113123E-35   1.03389863113123E-35   0.00000000000000E+00   8.43259393063509E-17   0.00000000000000E+00
      0.00000000000000E+00   0.00000000000000E+00   0.00000000000000E+00  -1.84337118001131E-20   1.21172645076500E-31
     -1.84337117999920E-20  -2.38831492017770E-16
      1.00000000000000E-02
      0.00000000000000E+00   0.00000000000000E+00   0.00000000000000E+00   0.00000000000000E+00  -6.84115564498185E-07
      0.00000000000000E+00  -6.84115564498185E-07   7.45570812721640E-17   2.50000000000000E-02   2.50000000000000E-02
      0.00000000000000E+00   0.00000000000000E+00   6.84115564831561E-07   0.00000000000000E+00   6.84115564831561E-07
      7.72446537412679E-17   0.00000000000000E+00   0.00000000000000E+00   0.00000000000000E+00   0.00000000000000E+00
     -1.04729762982423E-35   1.04729762982423E-35   0.00000000000000E+00   7.83188724454803E-17   0.00000000000000E+00
      0.00000000000000E+00   0.00000000000000E+00   0.00000000000000E+00  -3.23480452410728E-16  -7.35515267721550E-18
     -3.30835605087943E-16  -2.35532322954905E-16
      2.46000000000000E-02
      0.00000000000000E+00   0.00000000000000E+00   0.00000000000000E+00   0.00000000000000E+00  -1.33170068857116E-06
      0.00000000000000E+00  -1.33170068857116E-06   7.39245132999206E-17   6.15000000000000E-02   6.15000000000000E-02
      0.00000000000000E+00   0.00000000000000E+00   1.33170068910649E-06   0.00000000000000E+00   1.33170068910649E-06
      8.14758652786109E-17   0.00000000000000E+00   0.00000000000000E+00   0.00000000000000E+00   0.00000000000000E+00
     -1.06690994448264E-35   1.06690994448264E-35   0.00000000000000E+00   7.06248582276233E-17   0.00000000000000E+00
      0.00000000000000E+00   0.00000000000000E+00   0.00000000000000E+00  -5.01092124489029E-16  -1.37143180578980E-17
     -5.14806442546927E-16  -2.32205379085677E-16
      4.59160000000000E-02
      0.00000000000000E+00   0.00000000000000E+00   0.00000000000000E+00   0.00000000000000E+00  -1.81595786140953E-06
      0.00000000000000E+00  -1.81595786140953E-06   7.31900644894586E-17   1.14790000000000E-01   1.14790000000000E-01
      0.00000000000000E+00   0.00000000000000E+00   1.81595786202890E-06   0.00000000000000E+00   1.81595786202890E-06
      8.82845665972277E-17   0.00000000000000E+00   0.00000000000000E+00   0.00000000000000E+00   0.00000000000000E+00
     -1.04876377348361E-35   1.04876377348361E-35   0.00000000000000E+00   6.17233578395040E-17   0.00000000000000E+00
      0.00000000000000E+00   0.00000000000000E+00   0.00000000000000E+00   1.02307908840145E-15  -1.89423576105252E-17
      1.00413673079092E-15  -2.30664797736264E-16
      7.67531466666667E-02
      0.00000000000000E+00   0.00000000000000E+00   0.00000000000000E+00   0.00000000000000E+00  -2.22518068009951E-06
      0.00000000000000E+00  -2.22518068009951E-06   7.23116311954903E-17   1.91882866666667E-01   1.91882866666667E-01
      0.00000000000000E+00   0.00000000000000E+00   2.22518068078917E-06   0.00000000000000E+00   2.22518068078917E-06
      9.90991743339000E-17   0.00000000000000E+00   0.00000000000000E+00   0.00000000000000E+00   0.00000000000000E+00
     -1.04702018665360E-35   1.04702018665360E-35   0.00000000000000E+00   5.15514321423586E-17   0.00000000000000E+00
      0.00000000000000E+00   0.00000000000000E+00   0.00000000000000E+00  -5.00178958363262E-16  -2.45362758670959E-17
     -5.24715234230358E-16  -2.32667975749470E-16
      1.20541894933333E-01
      0.00000000000000E+00   0.00000000000000E+00   0.00000000000000E+00   0.00000000000000E+00  -2.73420070951730E-06
      0.00000000000000E+00  -2.73420070951730E-06   7.11580691590614E-17   3.01354737333333E-01   3.01354737333333E-01
      0.00000000000000E+00   0.00000000000000E+00   2.73420071033689E-06   0.00000000000000E+00   2.73420071033689E-06
      1.14894743400914E-16   0.00000000000000E+00   0.00000000000000E+00   0.00000000000000E+00   0.00000000000000E+00
     -1.03359077255942E-35   1.03359077255942E-35   0.00000000000000E+00   3.84612808174089E-17   0.00000000000000E+00
      0.00000000000000E+00   0.00000000000000E+00   0.00000000000000E+00  -8.19957774072031E-16  -3.10800723647641E-17
     -8.51037846436796E-16  -2.37981257235755E-16
      1.82138067495111E-01
      0.00000000000000E+00   0.00000000000000E+00   0.00000000000000E+00   0.00000000000000E+00  -3.43266534989260E-06
      0.00000000000000E+00  -3.43266534989260E-06   6.96213387104632E-17   4.55345168737778E-01   4.55345168737778E-01
      0.00000000000000E+00   0.00000000000000E+00   3.43266535092733E-06   0.00000000000000E+00   3.43266535092733E-06
      1.36867035539022E-16   0.00000000000000E+00   0.00000000000000E+00   0.00000000000000E+00   0.00000000000000E+00
     -1.06278999405656E-35   1.06278999405656E-35   0.00000000000000E+00   2.08103729639475E-17   0.00000000000000E+00
      0.00000000000000E+00   0.00000000000000E+00   0.00000000000000E+00   7.10199486579671E-14  -3.78046026656989E-17
      7.09821440553014E-14  -2.46782052381877E-16
      2.69604632532836E-01
      0.00000000000000E+00   0.00000000000000E+00   0.00000000000000E+00   0.00000000000000E+00  -4.43922349712790E-06
      0.00000000000000E+00  -4.43922349712790E-06   6.75689678021407E-17   6.74011581332089E-01   6.74011581332089E-01
      0.00000000000000E+00   0.00000000000000E+00   4.43922349837927E-06   0.00000000000000E+00   4.43922349837927E-06
      1.67697850570173E-16   0.00000000000000E+00   0.00000000000000E+00   0.00000000000000E+00   0.00000000000000E+00
     -1.05661849843681E-35   1.05661849843681E-35   0.00000000000000E+00  -3.53598235442653E-18   0.00000000000000E+00
      0.00000000000000E+00   0.00000000000000E+00   0.00000000000000E+00  -1.18973085564117E-15  -4.52547263126309E-17
     -1.23498558195380E-15  -2.60660058746425E-16
      3.69604632532835E-01
      0.00000000000000E+00   0.00000000000000E+00   0.00000000000000E+00   0.00000000000000E+00  -5.63037636419171E-06
      0.00000000000000E+00  -5.63037636419171E-06   6.53874990626495E-17   9.24011581332089E-01   9.24011581332089E-01
      0.00000000000000E+00   0.00000000000000E+00   5.63037636563453E-06   0.00000000000000E+00   5.63037636563453E-06
      2.02454229087883E-16   0.00000000000000E+00   0.00000000000000E+00   0.00000000000000E+00   0.00000000000000E+00
     -1.03481693935586E-35   1.03481693935586E-35   0.00000000000000E+00  -3.06213619451963E-17   0.00000000000000E+00
      0.00000000000000E+00   0.00000000000000E+00   0.00000000000000E+00  -1.35558038298500E-15  -5.19040633681250E-17
     -1.40748444635313E-15  -2.77724373112153E-16
      4.69604632532835E-01
      0.00000000000000E+00   0.00000000000000E+00   0.00000000000000E+00   0.00000000000000E+00  -6.85806573051307E-06
      0.00000000000000E+00  -6.85806573051307E-06   6.33745208250710E-17   1.17401158133209E+00   1.17401158133209E+00
      0.00000000000000E+00   0.00000000000000E+00   6.85806573206930E-06   0.00000000000000E+00   6.85806573206930E-06
      2.36749962704425E-16   0.00000000000000E+00   0.00000000000000E+00   0.00000000000000E+00   0.00000000000000E+00
     -1.04451439394864E-35   1.04451439394864E-35   0.00000000000000E+00  -5.66862301984622E-17   0.00000000000000E+00
      0.00000000000000E+00   0.00000000000000E+00   0.00000000000000E+00  -1.46401470941332E-15  -5.72193721779283E-17
     -1.52123408159125E-15  -2.95498357191089E-16
      5.69604632532835E-01
      0.00000000000000E+00   0.00000000000000E+00   0.00000000000000E+00   0.00000000000000E+00  -8.08682231672523E-06
      0.00000000000000E+00  -8.08682231672523E-06   6.15419548927498E-17   1.42401158133209E+00   1.42401158133209E+00
      0.00000000000000E+00   0.00000000000000E+00   8.08682231845173E-06   0.00000000000000E+00   8.08682231845173E-06
      2.71145201483371E-16   0.00000000000000E+00   0.00000000000000E+00   0.00000000000000E+00   0.00000000000000E+00
     -1.03109805300215E-35   1.03109805300215E-35   0.00000000000000E+00  -8.06651862692863E-17   0.00000000000000E+00
      0.00000000000000E+00   0.00000000000000E+00   0.00000000000000E+00  -1.77713478536572E-15  -6.15186423024396E-17
     -1.83865342766816E-15  -3.13469850886403E-16
      6.69604632532835E-01
      0.00000000000000E+00   0.00000000000000E+00   0.00000000000000E+00   0.00000000000000E+00  -9.29288441565740E-06
      0.00000000000000E+00  -9.29288441565740E-06   5.98819053345668E-17   1.67401158133209E+00   1.67401158133209E+00
      0.00000000000000E+00   0.00000000000000E+00   9.29288441769746E-06   0.00000000000000E+00   9.29288441769746E-06
      3.05084094057579E-16   0.00000000000000E+00   0.00000000000000E+00   0.00000000000000E+00   0.00000000000000E+00
     -1.04381257234658E-35   1.04381257234658E-35   0.00000000000000E+00  -1.02302730394416E-16   0.00000000000000E+00
      0.00000000000000E+00   0.00000000000000E+00   0.00000000000000E+00  -1.92561287938750E-15  -6.50822531514420E-17
     -1.99069513253895E-15  -3.31332735376898E-16
      7.69604632532835E-01
      0.00000000000000E+00   0.00000000000000E+00   0.00000000000000E+00   0.00000000000000E+00  -1.04841184183467E-05
      0.00000000000000E+00  -1.04841184183467E-05   5.83584974533849E-17   1.92401158133209E+00   1.92401158133209E+00
      0.00000000000000E+00   0.00000000000000E+00   1.04841184204976E-05   0.00000000000000E+00   1.04841184204976E-05
      3.37988668371245E-16   0.00000000000000E+00   0.00000000000000E+00   0.00000000000000E+00   0.00000000000000E+00
     -1.04017808764453E-35   1.04017808764453E-35   0.00000000000000E+00  -1.22433588310809E-16   0.00000000000000E+00
      0.00000000000000E+00   0.00000000000000E+00   0.00000000000000E+00  -2.05740853112513E-15  -6.78178765168931E-17
     -2.12522640764202E-15  -3.49070377835992E-16
      8.69604632532835E-01
      0.00000000000000E+00   0.00000000000000E+00   0.00000000000000E+00   0.00000000000000E+00  -1.16624481108292E-05
      0.00000000000000E+00  -1.16624481108292E-05   5.69480513963682E-17   2.17401158133209E+00   2.17401158133209E+00
      0.00000000000000E+00   0.00000000000000E+00   1.16624481130025E-05   0.00000000000000E+00   1.16624481130025E-05
      3.69958878347190E-16   0.00000000000000E+00   0.00000000000000E+00   0.00000000000000E+00   0.00000000000000E+00
     -1.05018064226538E-35   1.05018064226538E-35   0.00000000000000E+00  -1.41427258556777E-16   0.00000000000000E+00
      0.00000000000000E+00   0.00000000000000E+00   0.00000000000000E+00  -2.17434257041353E-15  -7.01857218016556E-17
     -2.24452829221519E-15  -3.66660686752418E-16
      9.69604632532835E-01
      0.00000000000000E+00   0.00000000000000E+00   0.00000000000000E+00   0.00000000000000E+00  -1.28351042394777E-05
      0.00000000000000E+00  -1.28351042394777E-05   5.56268821138676E-17   2.42401158133209E+00   2.42401158133209E+00
      0.00000000000000E+00   0.00000000000000E+00   1.28351042419879E-05   0.00000000000000E+00   1.28351042419879E-05
      4.01274616479109E-16   0.00000000000000E+00   0.00000000000000E+00   0.00000000000000E+00   0.00000000000000E+00
     -1.03444687250169E-35   1.03444687250169E-35   0.00000000000000E+00  -1.59662162571826E-16   0.00000000000000E+00
      0.00000000000000E+00   0.00000000000000E+00   0.00000000000000E+00  -2.27863509791948E-15  -7.24702443698587E-17
     -2.35110534228934E-15  -3.84163717628235E-16
      1.00000000000000E+00
      0.00000000000000E+00   0.00000000000000E+00   0.00000000000000E+00   0.00000000000000E+00  -1.31924916508474E-05
      0.00000000000000E+00  -1.31924916508474E-05   5.52392782567900E-17   2.50000000000000E+00   2.50000000000000E+00
      0.00000000000000E+00   0.00000000000000E+00   1.31924916530761E-05   0.00000000000000E+00   1.31924916530761E-05
      4.10721311978548E-16   0.00000000000000E+00   0.00000000000000E+00   0.00000000000000E+00   0.00000000000000E+00
     -1.05565340238464E-35   1.05565340238464E-35   0.00000000000000E+00  -1.65117150730883E-16   0.00000000000000E+00
      0.00000000000000E+00   0.00000000000000E+00   0.00000000000000E+00  -2.30531103474086E-15  -7.31320690189670E-17
     -2.37844310375983E-15  -3.89484042193484E-16
}
