DF-ISE text

Info {
  version   = 1.0
  type      = xyplot
  datasets  = [
    "time"
    "source OuterVoltage" "source InnerVoltage" "source QuasiFermiPotential" "source DisplacementCurrent" "source eCurrent"
    "source hCurrent" "source TotalCurrent" "source Charge" "drain OuterVoltage" "drain InnerVoltage"
    "drain QuasiFermiPotential" "drain DisplacementCurrent" "drain eCurrent" "drain hCurrent" "drain TotalCurrent"
    "drain Charge" "gate OuterVoltage" "gate InnerVoltage" "gate QuasiFermiPotential" "gate DisplacementCurrent"
    "gate eCurrent" "gate hCurrent" "gate TotalCurrent" "gate Charge" "substrate OuterVoltage"
    "substrate InnerVoltage" "substrate QuasiFermiPotential" "substrate DisplacementCurrent" "substrate eCurrent" "substrate hCurrent"
    "substrate TotalCurrent" "substrate Charge" ]
  functions = [
    Time
    OuterVoltage InnerVoltage QuasiFermiPotential DisplacementCurrent eCurrent
    hCurrent TotalCurrent Charge OuterVoltage InnerVoltage
    QuasiFermiPotential DisplacementCurrent eCurrent hCurrent TotalCurrent
    Charge OuterVoltage InnerVoltage QuasiFermiPotential DisplacementCurrent
    eCurrent hCurrent TotalCurrent Charge OuterVoltage
    InnerVoltage QuasiFermiPotential DisplacementCurrent eCurrent hCurrent
    TotalCurrent Charge ]
}

Data {
      0.00000000000000E+00
      0.00000000000000E+00   0.00000000000000E+00   0.00000000000000E+00   0.00000000000000E+00  -1.78373834741605E-15
      0.00000000000000E+00  -1.78373834741605E-15   7.45254303924786E-17   0.00000000000000E+00   0.00000000000000E+00
      0.00000000000000E+00   0.00000000000000E+00   8.26930957546515E-16   0.00000000000000E+00   8.26930957546515E-16
      7.91785716687840E-17   0.00000000000000E+00   0.00000000000000E+00   0.00000000000000E+00   0.00000000000000E+00
     -7.98613284757638E-36   7.98613284757638E-36   0.00000000000000E+00   6.66092360052183E-17   0.00000000000000E+00
      0.00000000000000E+00   0.00000000000000E+00   0.00000000000000E+00  -8.33004200240763E-20   1.46537792477984E-30
     -8.33004200226109E-20  -2.20727405900782E-16
      1.00000000000000E-02
      0.00000000000000E+00   0.00000000000000E+00   0.00000000000000E+00   0.00000000000000E+00  -1.52580661447176E-06
      0.00000000000000E+00  -1.52580661447176E-06   7.33570882603525E-17   2.50000000000000E-02   2.50000000000000E-02
      0.00000000000000E+00   0.00000000000000E+00   1.52580661645051E-06   0.00000000000000E+00   1.52580661645051E-06
      8.46858398118950E-17   0.00000000000000E+00   0.00000000000000E+00   0.00000000000000E+00   0.00000000000000E+00
     -8.18795678302991E-36   8.18795678302991E-36   0.00000000000000E+00   5.97766577639556E-17   0.00000000000000E+00
      0.00000000000000E+00   0.00000000000000E+00   0.00000000000000E+00  -4.07062633894701E-16  -6.03185342030941E-18
     -4.13094487315010E-16  -2.18423355330587E-16
      2.46000000000000E-02
      0.00000000000000E+00   0.00000000000000E+00   0.00000000000000E+00   0.00000000000000E+00  -2.99399954652129E-06
      0.00000000000000E+00  -2.99399954652129E-06   7.18511568817640E-17   6.15000000000000E-02   6.15000000000000E-02
      0.00000000000000E+00   0.00000000000000E+00   2.99399954710096E-06   0.00000000000000E+00   2.99399954710096E-06
      9.29779392716335E-17   0.00000000000000E+00   0.00000000000000E+00   0.00000000000000E+00   0.00000000000000E+00
     -8.15071453493254E-36   8.15071453493254E-36   0.00000000000000E+00   5.05568417225929E-17   0.00000000000000E+00
      0.00000000000000E+00   0.00000000000000E+00   0.00000000000000E+00  -6.64544561374249E-16  -1.18138529505778E-17
     -6.76358414324826E-16  -2.16266610212950E-16
      4.59160000000000E-02
      0.00000000000000E+00   0.00000000000000E+00   0.00000000000000E+00   0.00000000000000E+00  -4.21766975769609E-06
      0.00000000000000E+00  -4.21766975769609E-06   7.00137338324980E-17   1.14790000000000E-01   1.14790000000000E-01
      0.00000000000000E+00   0.00000000000000E+00   4.21766976016155E-06   0.00000000000000E+00   4.21766976016155E-06
      1.05860781758585E-16   0.00000000000000E+00   0.00000000000000E+00   0.00000000000000E+00   0.00000000000000E+00
     -8.10207820275806E-36   8.10207820275806E-36   0.00000000000000E+00   3.88071325691683E-17   0.00000000000000E+00
      0.00000000000000E+00   0.00000000000000E+00   0.00000000000000E+00  -7.48404172490563E-16  -1.72583815526258E-17
     -7.65662554043189E-16  -2.15966793167653E-16
      7.67531466666667E-02
      0.00000000000000E+00   0.00000000000000E+00   0.00000000000000E+00   0.00000000000000E+00  -5.42786864597344E-06
      0.00000000000000E+00  -5.42786864597344E-06   6.77338563896705E-17   1.91882866666667E-01   1.91882866666667E-01
      0.00000000000000E+00   0.00000000000000E+00   5.42786864637948E-06   0.00000000000000E+00   5.42786864637948E-06
      1.26231329156101E-16   0.00000000000000E+00   0.00000000000000E+00   0.00000000000000E+00   0.00000000000000E+00
     -8.09417678976741E-36   8.09417678976741E-36   0.00000000000000E+00   2.40638351954269E-17   0.00000000000000E+00
      0.00000000000000E+00   0.00000000000000E+00   0.00000000000000E+00  -8.59330146609294E-16  -2.28284182198831E-17
     -8.82158564829178E-16  -2.19899745564906E-16
      1.20953056888889E-01
      0.00000000000000E+00   0.00000000000000E+00   0.00000000000000E+00   0.00000000000000E+00  -7.01658105954855E-06
      0.00000000000000E+00  -7.01658105954855E-06   6.47409211297830E-17   3.02382642222222E-01   3.02382642222222E-01
      0.00000000000000E+00   0.00000000000000E+00   7.01658106193622E-06   0.00000000000000E+00   7.01658106193622E-06
      1.57484449190994E-16   0.00000000000000E+00   0.00000000000000E+00   0.00000000000000E+00   0.00000000000000E+00
     -7.90257058665623E-36   7.90257058665623E-36   0.00000000000000E+00   4.47292367941949E-18   0.00000000000000E+00
      0.00000000000000E+00   0.00000000000000E+00   0.00000000000000E+00  -9.91382232734556E-16  -2.89809426433686E-17
     -1.02036317537792E-15  -2.29409226218875E-16
      1.83716929404444E-01
      0.00000000000000E+00   0.00000000000000E+00   0.00000000000000E+00   0.00000000000000E+00  -9.28546802193960E-06
      0.00000000000000E+00  -9.28546802193960E-06   6.07858733220898E-17   4.59292323511111E-01   4.59292323511111E-01
      0.00000000000000E+00   0.00000000000000E+00   9.28546802114190E-06   0.00000000000000E+00   9.28546802114190E-06
      2.03077894814497E-16   0.00000000000000E+00   0.00000000000000E+00   0.00000000000000E+00   0.00000000000000E+00
     -8.23488681909151E-36   8.23488681909151E-36   0.00000000000000E+00  -2.23287385354314E-17   0.00000000000000E+00
      0.00000000000000E+00   0.00000000000000E+00   0.00000000000000E+00  -1.19778813549711E-15  -3.57564684571297E-17
     -1.23354460395423E-15  -2.45440608944951E-16
      2.72841628376533E-01
      0.00000000000000E+00   0.00000000000000E+00   0.00000000000000E+00   0.00000000000000E+00  -1.26276103231271E-05
      0.00000000000000E+00  -1.26276103231271E-05   5.55959299990061E-17   6.82104070941333E-01   6.82104070941333E-01
      0.00000000000000E+00   0.00000000000000E+00   1.26276103239836E-05   0.00000000000000E+00   1.26276103239836E-05
      2.67833066297247E-16   0.00000000000000E+00   0.00000000000000E+00   0.00000000000000E+00   0.00000000000000E+00
     -7.70113790751769E-36   7.70113790751769E-36   0.00000000000000E+00  -5.94089030269931E-17   0.00000000000000E+00
      0.00000000000000E+00   0.00000000000000E+00   0.00000000000000E+00  -1.44024522930610E-15  -4.30658257383359E-17
     -1.48331105504444E-15  -2.69624801045238E-16
      3.72841628376533E-01
      0.00000000000000E+00   0.00000000000000E+00   0.00000000000000E+00   0.00000000000000E+00  -1.65523109171475E-05
      0.00000000000000E+00  -1.65523109171475E-05   5.02222998484529E-17   9.32104070941333E-01   9.32104070941333E-01
      0.00000000000000E+00   0.00000000000000E+00   1.65523109211279E-05   0.00000000000000E+00   1.65523109211279E-05
      3.39656603273526E-16   0.00000000000000E+00   0.00000000000000E+00   0.00000000000000E+00   0.00000000000000E+00
     -8.08325766161192E-36   8.08325766161192E-36   0.00000000000000E+00  -1.00279671179375E-16   0.00000000000000E+00
      0.00000000000000E+00   0.00000000000000E+00   0.00000000000000E+00  -1.67322280293451E-15  -4.92095879710248E-17
     -1.72243239090553E-15  -2.97113803649927E-16
      4.72841628376533E-01
      0.00000000000000E+00   0.00000000000000E+00   0.00000000000000E+00   0.00000000000000E+00  -2.06274592359172E-05
      0.00000000000000E+00  -2.06274592359172E-05   4.52180830098230E-17   1.18210407094133E+00   1.18210407094133E+00
      0.00000000000000E+00   0.00000000000000E+00   2.06274592407360E-05   0.00000000000000E+00   2.06274592407360E-05
      4.10813908084114E-16   0.00000000000000E+00   0.00000000000000E+00   0.00000000000000E+00   0.00000000000000E+00
     -8.07054782621922E-36   8.07054782621922E-36   0.00000000000000E+00  -1.40638669890696E-16   0.00000000000000E+00
      0.00000000000000E+00   0.00000000000000E+00   0.00000000000000E+00  -1.87214492542767E-15  -5.41612024148376E-17
     -1.92630612784250E-15  -3.24821107292528E-16
      5.72841628376533E-01
      0.00000000000000E+00   0.00000000000000E+00   0.00000000000000E+00   0.00000000000000E+00  -2.48141018027380E-05
      0.00000000000000E+00  -2.48141018027380E-05   4.05104358554815E-17   1.43210407094133E+00   1.43210407094133E+00
      0.00000000000000E+00   0.00000000000000E+00   2.48141018115872E-05   0.00000000000000E+00   2.48141018115872E-05
      4.81500036329382E-16   0.00000000000000E+00   0.00000000000000E+00   0.00000000000000E+00   0.00000000000000E+00
     -7.96335658241420E-36   7.96335658241420E-36   0.00000000000000E+00  -1.80579036523851E-16   0.00000000000000E+00
      0.00000000000000E+00   0.00000000000000E+00   0.00000000000000E+00  -2.04385621526834E-15  -5.78351488386820E-17
     -2.10169136410702E-15  -3.52775642467078E-16
      6.72841628376533E-01
      0.00000000000000E+00   0.00000000000000E+00   0.00000000000000E+00   0.00000000000000E+00  -2.90817382951455E-05
      0.00000000000000E+00  -2.90817382951455E-05   3.60472270347796E-17   1.68210407094133E+00   1.68210407094133E+00
      0.00000000000000E+00   0.00000000000000E+00   2.90817382902030E-05   0.00000000000000E+00   2.90817382902030E-05
      5.51745274420384E-16   0.00000000000000E+00   0.00000000000000E+00   0.00000000000000E+00   0.00000000000000E+00
     -8.12461654555531E-36   8.12461654555531E-36   0.00000000000000E+00  -2.20142276988036E-16   0.00000000000000E+00
      0.00000000000000E+00   0.00000000000000E+00   0.00000000000000E+00  -2.19106613537432E-15  -6.10781864296472E-17
     -2.25214432180397E-15  -3.80913995313366E-16
      7.72841628376533E-01
      0.00000000000000E+00   0.00000000000000E+00   0.00000000000000E+00   0.00000000000000E+00  -3.34044049263779E-05
      0.00000000000000E+00  -3.34044049263779E-05   3.17908077535867E-17   1.93210407094133E+00   1.93210407094133E+00
      0.00000000000000E+00   0.00000000000000E+00   3.34044049278729E-05   0.00000000000000E+00   3.34044049278729E-05
      6.21529451138476E-16   0.00000000000000E+00   0.00000000000000E+00   0.00000000000000E+00   0.00000000000000E+00
     -8.07540788088281E-36   8.07540788088281E-36   0.00000000000000E+00  -2.59334369178583E-16   0.00000000000000E+00
      0.00000000000000E+00   0.00000000000000E+00   0.00000000000000E+00  -2.32329624961011E-15  -6.40667044240447E-17
     -2.38736295403416E-15  -4.09172400401037E-16
      8.72841628376533E-01
      0.00000000000000E+00   0.00000000000000E+00   0.00000000000000E+00   0.00000000000000E+00  -3.77631197099125E-05
      0.00000000000000E+00  -3.77631197099125E-05   2.77127042024737E-17   2.18210407094133E+00   2.18210407094133E+00
      0.00000000000000E+00   0.00000000000000E+00   3.77631197075911E-05   0.00000000000000E+00   3.77631197075911E-05
      6.90792760746200E-16   0.00000000000000E+00   0.00000000000000E+00   0.00000000000000E+00   0.00000000000000E+00
     -8.11840142814343E-36   8.11840142814343E-36   0.00000000000000E+00  -2.98124620568120E-16   0.00000000000000E+00
      0.00000000000000E+00   0.00000000000000E+00   0.00000000000000E+00  -2.43803995095810E-15  -6.63818485936789E-17
     -2.50442179955178E-15  -4.37493413653134E-16
      9.72841628376533E-01
      0.00000000000000E+00   0.00000000000000E+00   0.00000000000000E+00   0.00000000000000E+00  -4.21378153940770E-05
      0.00000000000000E+00  -4.21378153940770E-05   2.37929901923802E-17   2.43210407094133E+00   2.43210407094133E+00
      0.00000000000000E+00   0.00000000000000E+00   4.21378154008803E-05   0.00000000000000E+00   4.21378154008803E-05
      7.59445283490750E-16   0.00000000000000E+00   0.00000000000000E+00   0.00000000000000E+00   0.00000000000000E+00
     -8.14776415120316E-36   8.14776415120316E-36   0.00000000000000E+00  -3.36453247265058E-16   0.00000000000000E+00
      0.00000000000000E+00   0.00000000000000E+00   0.00000000000000E+00  -2.54287694490898E-15  -6.80961936915289E-17
     -2.61097313860051E-15  -4.65827184931913E-16
      1.00000000000000E+00
      0.00000000000000E+00   0.00000000000000E+00   0.00000000000000E+00   0.00000000000000E+00  -4.33270939015994E-05
      0.00000000000000E+00  -4.33270939015994E-05   2.27533731415059E-17   2.50000000000000E+00   2.50000000000000E+00
      0.00000000000000E+00   0.00000000000000E+00   4.33270939014058E-05   0.00000000000000E+00   4.33270939014058E-05
      7.77981096234527E-16   0.00000000000000E+00   0.00000000000000E+00   0.00000000000000E+00   0.00000000000000E+00
     -8.07368688243237E-36   8.07368688243237E-36   0.00000000000000E+00  -3.46781040386497E-16   0.00000000000000E+00
      0.00000000000000E+00   0.00000000000000E+00   0.00000000000000E+00  -2.56899098372822E-15  -6.85094438059122E-17
     -2.63750042753413E-15  -4.73520251053757E-16
}
