DF-ISE text

Info {
  version   = 1.0
  type      = xyplot
  datasets  = [
    "time"
    "source OuterVoltage" "source InnerVoltage" "source QuasiFermiPotential" "source DisplacementCurrent" "source eCurrent"
    "source hCurrent" "source TotalCurrent" "source Charge" "drain OuterVoltage" "drain InnerVoltage"
    "drain QuasiFermiPotential" "drain DisplacementCurrent" "drain eCurrent" "drain hCurrent" "drain TotalCurrent"
    "drain Charge" "gate OuterVoltage" "gate InnerVoltage" "gate QuasiFermiPotential" "gate DisplacementCurrent"
    "gate eCurrent" "gate hCurrent" "gate TotalCurrent" "gate Charge" "substrate OuterVoltage"
    "substrate InnerVoltage" "substrate QuasiFermiPotential" "substrate DisplacementCurrent" "substrate eCurrent" "substrate hCurrent"
    "substrate TotalCurrent" "substrate Charge" ]
  functions = [
    Time
    OuterVoltage InnerVoltage QuasiFermiPotential DisplacementCurrent eCurrent
    hCurrent TotalCurrent Charge OuterVoltage InnerVoltage
    QuasiFermiPotential DisplacementCurrent eCurrent hCurrent TotalCurrent
    Charge OuterVoltage InnerVoltage QuasiFermiPotential DisplacementCurrent
    eCurrent hCurrent TotalCurrent Charge OuterVoltage
    InnerVoltage QuasiFermiPotential DisplacementCurrent eCurrent hCurrent
    TotalCurrent Charge ]
}

Data {
      0.00000000000000E+00
      0.00000000000000E+00   0.00000000000000E+00   0.00000000000000E+00   0.00000000000000E+00   4.47275304009036E-17
      0.00000000000000E+00   4.47275304009036E-17   1.22886488569128E-17   0.00000000000000E+00   0.00000000000000E+00
      0.00000000000000E+00   0.00000000000000E+00  -1.40741743299735E-16   0.00000000000000E+00  -1.40741743299735E-16
      2.12185724264046E-17   1.00000000000000E+00   1.00000000000000E+00   0.00000000000000E+00   0.00000000000000E+00
     -2.16346329601021E-35   2.16346329601021E-35   0.00000000000000E+00   7.24357811778028E-16   0.00000000000000E+00
      0.00000000000000E+00   0.00000000000000E+00   0.00000000000000E+00  -1.36636101689980E-19  -5.01918190100919E-32
     -1.36636101690030E-19  -7.41666822807223E-16
      1.00000000000000E-02
      0.00000000000000E+00   0.00000000000000E+00   0.00000000000000E+00   0.00000000000000E+00  -6.74445256517829E-06
      0.00000000000000E+00  -6.74445256517829E-06   1.16411232263653E-17   2.50000000000000E-02   2.50000000000000E-02
      0.00000000000000E+00   0.00000000000000E+00   6.74445256548566E-06   0.00000000000000E+00   6.74445256548566E-06
      2.41321633827917E-17   1.00000000000000E+00   1.00000000000000E+00   0.00000000000000E+00   0.00000000000000E+00
     -2.14141691848803E-35   2.14141691848803E-35   0.00000000000000E+00   7.15867104595114E-16   0.00000000000000E+00
      0.00000000000000E+00   0.00000000000000E+00   0.00000000000000E+00  -3.50261332620848E-16  -6.52343516239837E-18
     -3.56784767783247E-16  -7.35669003708678E-16
      2.46000000000000E-02
      0.00000000000000E+00   0.00000000000000E+00   0.00000000000000E+00   0.00000000000000E+00  -1.57886121659688E-05
      0.00000000000000E+00  -1.57886121659688E-05   1.06973014336127E-17   6.15000000000000E-02   6.15000000000000E-02
      0.00000000000000E+00   0.00000000000000E+00   1.57886121664660E-05   0.00000000000000E+00   1.57886121664660E-05
      2.84592881919383E-17   1.00000000000000E+00   1.00000000000000E+00   0.00000000000000E+00   0.00000000000000E+00
     -2.14514841320636E-35   2.14514841320636E-35   0.00000000000000E+00   7.03579046408043E-16   0.00000000000000E+00
      0.00000000000000E+00   0.00000000000000E+00   0.00000000000000E+00  -5.73884409216790E-16  -1.30731240905343E-17
     -5.86957533307324E-16  -7.27096879367386E-16
      4.59160000000000E-02
      0.00000000000000E+00   0.00000000000000E+00   0.00000000000000E+00   0.00000000000000E+00  -2.73115442799598E-05
      0.00000000000000E+00  -2.73115442799598E-05   9.33287312299561E-18   1.14790000000000E-01   1.14790000000000E-01
      0.00000000000000E+00   0.00000000000000E+00   2.73115442808084E-05   0.00000000000000E+00   2.73115442808084E-05
      3.49442940113301E-17   1.00000000000000E+00   1.00000000000000E+00   0.00000000000000E+00   0.00000000000000E+00
     -2.12723835948587E-35   2.12723835948587E-35   0.00000000000000E+00   6.85929863485419E-16   0.00000000000000E+00
      0.00000000000000E+00   0.00000000000000E+00   0.00000000000000E+00  -7.11082410981464E-16  -1.98288149791530E-17
     -7.30911225960617E-16  -7.15057503203879E-16
      7.70373600000000E-02
      0.00000000000000E+00   0.00000000000000E+00   0.00000000000000E+00   0.00000000000000E+00  -4.08787007515482E-05
      0.00000000000000E+00  -4.08787007515482E-05   7.40841064820627E-18   1.92593400000000E-01   1.92593400000000E-01
      0.00000000000000E+00   0.00000000000000E+00   4.08787007523799E-05   0.00000000000000E+00   4.08787007523799E-05
      4.48136478387970E-17   1.00000000000000E+00   1.00000000000000E+00   0.00000000000000E+00   0.00000000000000E+00
     -2.12780432449733E-35   2.12780432449733E-35   0.00000000000000E+00   6.61016097072759E-16   0.00000000000000E+00
      0.00000000000000E+00   0.00000000000000E+00   0.00000000000000E+00  -3.14351621856066E-16  -2.73444364040506E-17
     -3.41696058260117E-16  -6.98811994453221E-16
      1.22059594133333E-01
      0.00000000000000E+00   0.00000000000000E+00   0.00000000000000E+00   0.00000000000000E+00  -5.48293122263117E-05
      0.00000000000000E+00  -5.48293122263117E-05   4.87855925486378E-18   3.05148985333333E-01   3.05148985333333E-01
      0.00000000000000E+00   0.00000000000000E+00   5.48293122272778E-05   0.00000000000000E+00   5.48293122272778E-05
      6.01587204180553E-17   1.00000000000000E+00   1.00000000000000E+00   0.00000000000000E+00   0.00000000000000E+00
     -2.12571812249475E-35   2.12571812249475E-35   0.00000000000000E+00   6.27653997430746E-16   0.00000000000000E+00
      0.00000000000000E+00   0.00000000000000E+00   0.00000000000000E+00  -9.93582921138271E-16  -3.57517176810820E-17
     -1.02933463881935E-15  -6.79335888176458E-16
      1.86591463057778E-01
      0.00000000000000E+00   0.00000000000000E+00   0.00000000000000E+00   0.00000000000000E+00  -6.64670786986586E-05
      0.00000000000000E+00  -6.64670786986586E-05   1.96898098940472E-18   4.66478657644445E-01   4.66478657644445E-01
      0.00000000000000E+00   0.00000000000000E+00   6.64670786995562E-05   0.00000000000000E+00   6.64670786995562E-05
      8.56339455883501E-17   1.00000000000000E+00   1.00000000000000E+00   0.00000000000000E+00   0.00000000000000E+00
     -2.13786557008431E-35   2.13786557008431E-35   0.00000000000000E+00   5.88118159989099E-16   0.00000000000000E+00
      0.00000000000000E+00   0.00000000000000E+00   0.00000000000000E+00  -1.17877446585137E-15  -4.44721363481862E-17
     -1.22324660219956E-15  -6.63980720177407E-16
      2.78226716930489E-01
      0.00000000000000E+00   0.00000000000000E+00   0.00000000000000E+00   0.00000000000000E+00  -7.49005692436969E-05
      0.00000000000000E+00  -7.49005692436969E-05  -1.04069239424843E-18   6.95566792326222E-01   6.95566792326222E-01
      0.00000000000000E+00   0.00000000000000E+00   7.49005692453167E-05   0.00000000000000E+00   7.49005692453167E-05
      1.28774983446318E-16   1.00000000000000E+00   1.00000000000000E+00   0.00000000000000E+00   0.00000000000000E+00
     -2.12902008854693E-35   2.12902008854693E-35   0.00000000000000E+00   5.47747264537767E-16   0.00000000000000E+00
      0.00000000000000E+00   0.00000000000000E+00   0.00000000000000E+00  -3.56086428613802E-16  -5.27046792677166E-17
     -4.08791107881518E-16  -6.66429700484526E-16
      3.78226716930489E-01
      0.00000000000000E+00   0.00000000000000E+00   0.00000000000000E+00   0.00000000000000E+00  -8.10901991628752E-05
      0.00000000000000E+00  -8.10901991628752E-05  -3.71914742113289E-18   9.45566792326222E-01   9.45566792326222E-01
      0.00000000000000E+00   0.00000000000000E+00   8.10901991645583E-05   0.00000000000000E+00   8.10901991645583E-05
      1.76863599221184E-16   1.00000000000000E+00   1.00000000000000E+00   0.00000000000000E+00   0.00000000000000E+00
     -2.12618455098567E-35   2.12618455098567E-35   0.00000000000000E+00   5.11718874710282E-16   0.00000000000000E+00
      0.00000000000000E+00   0.00000000000000E+00   0.00000000000000E+00   5.28642610978863E-15  -5.89921001831400E-17
      5.22743400960549E-15  -6.79614727947320E-16
      4.78226716930489E-01
      0.00000000000000E+00   0.00000000000000E+00   0.00000000000000E+00   0.00000000000000E+00  -8.61674128551074E-05
      0.00000000000000E+00  -8.61674128551074E-05  -6.07738515188211E-18   1.19556679232622E+00   1.19556679232622E+00
      0.00000000000000E+00   0.00000000000000E+00   8.61674128569574E-05   0.00000000000000E+00   8.61674128569574E-05
      2.24507514838495E-16   1.00000000000000E+00   1.00000000000000E+00   0.00000000000000E+00   0.00000000000000E+00
     -2.14703145584448E-35   2.14703145584448E-35   0.00000000000000E+00   4.78776477478369E-16   0.00000000000000E+00
      0.00000000000000E+00   0.00000000000000E+00   0.00000000000000E+00  -1.73303604090057E-15  -6.36352215541416E-17
     -1.79667126245471E-15  -6.96728253017605E-16
      5.78226716930489E-01
      0.00000000000000E+00   0.00000000000000E+00   0.00000000000000E+00   0.00000000000000E+00  -9.06599614595071E-05
      0.00000000000000E+00  -9.06599614595071E-05  -8.21518258079062E-18   1.44556679232622E+00   1.44556679232622E+00
      0.00000000000000E+00   0.00000000000000E+00   9.06599614621670E-05   0.00000000000000E+00   9.06599614621670E-05
      2.71497855222764E-16   1.00000000000000E+00   1.00000000000000E+00   0.00000000000000E+00   0.00000000000000E+00
     -2.11637492186323E-35   2.11637492186323E-35   0.00000000000000E+00   4.47402844205539E-16   0.00000000000000E+00
      0.00000000000000E+00   0.00000000000000E+00   0.00000000000000E+00  -1.95082445448778E-15  -6.74416796713406E-17
     -2.01826613415912E-15  -7.15681754834527E-16
      6.78226716930489E-01
      0.00000000000000E+00   0.00000000000000E+00   0.00000000000000E+00   0.00000000000000E+00  -9.47834106917269E-05
      0.00000000000000E+00  -9.47834106917269E-05  -1.01844467195955E-17   1.69556679232622E+00   1.69556679232622E+00
      0.00000000000000E+00   0.00000000000000E+00   9.47834106943499E-05   0.00000000000000E+00   9.47834106943499E-05
      3.18041887802179E-16   1.00000000000000E+00   1.00000000000000E+00   0.00000000000000E+00   0.00000000000000E+00
     -2.13890275894691E-35   2.13890275894691E-35   0.00000000000000E+00   4.16962444803016E-16   0.00000000000000E+00
      0.00000000000000E+00   0.00000000000000E+00   0.00000000000000E+00  -2.11853059119955E-15  -7.02650458328823E-17
     -2.18879563703243E-15  -7.35791828077402E-16
      7.78226716930489E-01
      0.00000000000000E+00   0.00000000000000E+00   0.00000000000000E+00   0.00000000000000E+00  -9.86434468742659E-05
      0.00000000000000E+00  -9.86434468742659E-05  -1.20172773079342E-17   1.94556679232622E+00   1.94556679232622E+00
      0.00000000000000E+00   0.00000000000000E+00   9.86434468762052E-05   0.00000000000000E+00   9.86434468762052E-05
      3.64114464781708E-16   1.00000000000000E+00   1.00000000000000E+00   0.00000000000000E+00   0.00000000000000E+00
     -2.12008631016178E-35   2.12008631016178E-35   0.00000000000000E+00   3.87195403645212E-16   0.00000000000000E+00
      0.00000000000000E+00   0.00000000000000E+00   0.00000000000000E+00  -2.24636627261522E-15  -7.26098961589292E-17
     -2.31897616877415E-15  -7.56718410646445E-16
      8.78226716930489E-01
      0.00000000000000E+00   0.00000000000000E+00   0.00000000000000E+00   0.00000000000000E+00  -1.02302525975118E-04
      0.00000000000000E+00  -1.02302525975118E-04  -1.37369162803787E-17   2.19556679232622E+00   2.19556679232622E+00
      0.00000000000000E+00   0.00000000000000E+00   1.02302525977598E-04   0.00000000000000E+00   1.02302525977598E-04
      4.09698194265311E-16   1.00000000000000E+00   1.00000000000000E+00   0.00000000000000E+00   0.00000000000000E+00
     -2.11882366292683E-35   2.11882366292683E-35   0.00000000000000E+00   3.57957088655768E-16   0.00000000000000E+00
      0.00000000000000E+00   0.00000000000000E+00   0.00000000000000E+00  -2.35901506304527E-15  -7.48759853254019E-17
     -2.43389104837068E-15  -7.78274166904486E-16
      9.78226716930489E-01
      0.00000000000000E+00   0.00000000000000E+00   0.00000000000000E+00   0.00000000000000E+00  -1.05805743654872E-04
      0.00000000000000E+00  -1.05805743654872E-04  -1.53623444889056E-17   2.44556679232622E+00   2.44556679232622E+00
      0.00000000000000E+00   0.00000000000000E+00   1.05805743658204E-04   0.00000000000000E+00   1.05805743658204E-04
      4.54827429199959E-16   1.00000000000000E+00   1.00000000000000E+00   0.00000000000000E+00   0.00000000000000E+00
     -2.12388946469098E-35   2.12388946469098E-35   0.00000000000000E+00   3.29110356753880E-16   0.00000000000000E+00
      0.00000000000000E+00   0.00000000000000E+00   0.00000000000000E+00  -2.46090367045995E-15  -7.68199882179154E-17
     -2.53772365867787E-15  -8.00279447344228E-16
      1.00000000000000E+00
      0.00000000000000E+00   0.00000000000000E+00   0.00000000000000E+00   0.00000000000000E+00  -1.06551136257590E-04
      0.00000000000000E+00  -1.06551136257590E-04  -1.57052877643020E-17   2.50000000000000E+00   2.50000000000000E+00
      0.00000000000000E+00   0.00000000000000E+00   1.06551136260155E-04   0.00000000000000E+00   1.06551136260155E-04
      4.64599074586077E-16   1.00000000000000E+00   1.00000000000000E+00   0.00000000000000E+00   0.00000000000000E+00
     -2.13237422107974E-35   2.13237422107974E-35   0.00000000000000E+00   3.22870949386090E-16   0.00000000000000E+00
      0.00000000000000E+00   0.00000000000000E+00   0.00000000000000E+00  -2.48222760851362E-15  -7.71741873705564E-17
     -2.55940179588417E-15  -8.05116789841148E-16
}
