DF-ISE text

Info {
  version   = 1.0
  type      = xyplot
  datasets  = [
    "time"
    "source OuterVoltage" "source InnerVoltage" "source QuasiFermiPotential" "source DisplacementCurrent" "source eCurrent"
    "source hCurrent" "source TotalCurrent" "source Charge" "drain OuterVoltage" "drain InnerVoltage"
    "drain QuasiFermiPotential" "drain DisplacementCurrent" "drain eCurrent" "drain hCurrent" "drain TotalCurrent"
    "drain Charge" "gate OuterVoltage" "gate InnerVoltage" "gate QuasiFermiPotential" "gate DisplacementCurrent"
    "gate eCurrent" "gate hCurrent" "gate TotalCurrent" "gate Charge" "substrate OuterVoltage"
    "substrate InnerVoltage" "substrate QuasiFermiPotential" "substrate DisplacementCurrent" "substrate eCurrent" "substrate hCurrent"
    "substrate TotalCurrent" "substrate Charge" ]
  functions = [
    Time
    OuterVoltage InnerVoltage QuasiFermiPotential DisplacementCurrent eCurrent
    hCurrent TotalCurrent Charge OuterVoltage InnerVoltage
    QuasiFermiPotential DisplacementCurrent eCurrent hCurrent TotalCurrent
    Charge OuterVoltage InnerVoltage QuasiFermiPotential DisplacementCurrent
    eCurrent hCurrent TotalCurrent Charge OuterVoltage
    InnerVoltage QuasiFermiPotential DisplacementCurrent eCurrent hCurrent
    TotalCurrent Charge ]
}

Data {
      0.00000000000000E+00
      0.00000000000000E+00   0.00000000000000E+00   0.00000000000000E+00   0.00000000000000E+00  -1.01898208013459E-15
      0.00000000000000E+00  -1.01898208013459E-15  -4.18937437867839E-17   0.00000000000000E+00   0.00000000000000E+00
      0.00000000000000E+00   0.00000000000000E+00   8.77297416913110E-16   0.00000000000000E+00   8.77297416913110E-16
     -9.32794553543200E-18   1.00000000000000E+00   1.00000000000000E+00   0.00000000000000E+00   0.00000000000000E+00
     -2.69627054052882E-36   2.69627054052882E-36   0.00000000000000E+00   7.21126030490175E-16   0.00000000000000E+00
      0.00000000000000E+00   0.00000000000000E+00   0.00000000000000E+00   4.99423982546700E-19   4.98073318127232E-32
      4.99423982546749E-19  -6.55467264607947E-16
      1.00000000000000E-02
      0.00000000000000E+00   0.00000000000000E+00   0.00000000000000E+00   0.00000000000000E+00  -1.01778174375476E-05
      0.00000000000000E+00  -1.01778174375476E-05  -4.28337297068034E-17   2.50000000000000E-02   2.50000000000000E-02
      0.00000000000000E+00   0.00000000000000E+00   1.01778174393444E-05   0.00000000000000E+00   1.01778174393444E-05
     -4.91569185313931E-18   1.00000000000000E+00   1.00000000000000E+00   0.00000000000000E+00   0.00000000000000E+00
     -2.83494315861843E-36   2.83494315861843E-36   0.00000000000000E+00   7.12634901928743E-16   0.00000000000000E+00
      0.00000000000000E+00   0.00000000000000E+00   0.00000000000000E+00  -3.67210924447162E-16  -6.13330965470399E-18
     -3.73344234101866E-16  -6.50636162374163E-16
      2.46000000000000E-02
      0.00000000000000E+00   0.00000000000000E+00   0.00000000000000E+00   0.00000000000000E+00  -2.31101243600366E-05
      0.00000000000000E+00  -2.31101243600366E-05  -4.41635871120374E-17   6.15000000000000E-02   6.15000000000000E-02
      0.00000000000000E+00   0.00000000000000E+00   2.31101243578645E-05   0.00000000000000E+00   2.31101243578645E-05
      1.60741283858131E-18   1.00000000000000E+00   1.00000000000000E+00   0.00000000000000E+00   0.00000000000000E+00
     -2.79112487315167E-36   2.79112487315167E-36   0.00000000000000E+00   7.00388465583687E-16   0.00000000000000E+00
      0.00000000000000E+00   0.00000000000000E+00   0.00000000000000E+00  -5.86292587825084E-16  -1.22562667964909E-17
     -5.98548854621575E-16  -6.43857159850348E-16
      4.59160000000000E-02
      0.00000000000000E+00   0.00000000000000E+00   0.00000000000000E+00   0.00000000000000E+00  -3.83783933810339E-05
      0.00000000000000E+00  -3.83783933810339E-05  -4.60008279183333E-17   1.14790000000000E-01   1.14790000000000E-01
      0.00000000000000E+00   0.00000000000000E+00   3.83783933844588E-05   0.00000000000000E+00   3.83783933844588E-05
      1.13254799778924E-17   1.00000000000000E+00   1.00000000000000E+00   0.00000000000000E+00   0.00000000000000E+00
     -2.62251742345335E-36   2.62251742345335E-36   0.00000000000000E+00   6.82908600715612E-16   0.00000000000000E+00
      0.00000000000000E+00   0.00000000000000E+00   0.00000000000000E+00  -7.41490785281911E-16  -1.84180864826408E-17
     -7.59908871764552E-16  -6.34658553521430E-16
      7.70373600000000E-02
      0.00000000000000E+00   0.00000000000000E+00   0.00000000000000E+00   0.00000000000000E+00  -5.46723522373684E-05
      0.00000000000000E+00  -5.46723522373684E-05  -4.84290421366331E-17   1.92593400000000E-01   1.92593400000000E-01
      0.00000000000000E+00   0.00000000000000E+00   5.46723522386475E-05   0.00000000000000E+00   5.46723522386475E-05
      2.60201321599277E-17   1.00000000000000E+00   1.00000000000000E+00   0.00000000000000E+00   0.00000000000000E+00
     -2.83208758957202E-36   2.83208758957202E-36   0.00000000000000E+00   6.58513258892778E-16   0.00000000000000E+00
      0.00000000000000E+00   0.00000000000000E+00   0.00000000000000E+00  -8.31124375440222E-16  -2.50505948698351E-17
     -8.56174970310057E-16  -6.23114518598191E-16
      1.21644642666667E-01
      0.00000000000000E+00   0.00000000000000E+00   0.00000000000000E+00   0.00000000000000E+00  -6.95474516016582E-05
      0.00000000000000E+00  -6.95474516016582E-05  -5.13485534418905E-17   3.04111606666667E-01   3.04111606666667E-01
      0.00000000000000E+00   0.00000000000000E+00   6.95474516051596E-05   0.00000000000000E+00   6.95474516051596E-05
      4.85575617681417E-17   1.00000000000000E+00   1.00000000000000E+00   0.00000000000000E+00   0.00000000000000E+00
     -2.70440985701232E-36   2.70440985701232E-36   0.00000000000000E+00   6.26716454551186E-16   0.00000000000000E+00
      0.00000000000000E+00   0.00000000000000E+00   0.00000000000000E+00  -9.82863500300943E-16  -3.22323721465182E-17
     -1.01509587244746E-15  -6.11774414208032E-16
      1.84986984053333E-01
      0.00000000000000E+00   0.00000000000000E+00   0.00000000000000E+00   0.00000000000000E+00  -8.11771856356138E-05
      0.00000000000000E+00  -8.11771856356138E-05  -5.45209984151460E-17   4.62467460133333E-01   4.62467460133333E-01
      0.00000000000000E+00   0.00000000000000E+00   8.11771856343763E-05   0.00000000000000E+00   8.11771856343763E-05
      8.53791875994650E-17   1.00000000000000E+00   1.00000000000000E+00   0.00000000000000E+00   0.00000000000000E+00
     -2.75487062282789E-36   2.75487062282789E-36   0.00000000000000E+00   5.89194468591121E-16   0.00000000000000E+00
      0.00000000000000E+00   0.00000000000000E+00   0.00000000000000E+00  -1.17610351711233E-15  -3.97059076367300E-17
     -1.21580942474906E-15  -6.09093727102156E-16
      2.74088544270578E-01
      0.00000000000000E+00   0.00000000000000E+00   0.00000000000000E+00   0.00000000000000E+00  -9.08863177069620E-05
      0.00000000000000E+00  -9.08863177069620E-05  -5.79794245215324E-17   6.85221360676444E-01   6.85221360676444E-01
      0.00000000000000E+00   0.00000000000000E+00   9.08863177062330E-05   0.00000000000000E+00   9.08863177062330E-05
      1.45664373939005E-16   1.00000000000000E+00   1.00000000000000E+00   0.00000000000000E+00   0.00000000000000E+00
     -2.88659954815010E-36   2.88659954815010E-36   0.00000000000000E+00   5.45913106593124E-16   0.00000000000000E+00
      0.00000000000000E+00   0.00000000000000E+00   0.00000000000000E+00  -1.41172903839861E-15  -4.72510995184748E-17
     -1.45898013791709E-15  -6.24318542607357E-16
      3.74088544270578E-01
      0.00000000000000E+00   0.00000000000000E+00   0.00000000000000E+00   0.00000000000000E+00  -9.92621215663398E-05
      0.00000000000000E+00  -9.92621215663398E-05  -6.12796951215916E-17   9.35221360676444E-01   9.35221360676444E-01
      0.00000000000000E+00   0.00000000000000E+00   9.92621215702243E-05   0.00000000000000E+00   9.92621215702243E-05
      2.14703134370986E-16   1.00000000000000E+00   1.00000000000000E+00   0.00000000000000E+00   0.00000000000000E+00
     -2.86236505059403E-36   2.86236505059403E-36   0.00000000000000E+00   5.01673246715716E-16   0.00000000000000E+00
      0.00000000000000E+00   0.00000000000000E+00   0.00000000000000E+00   4.69356209361965E-15  -5.35204143866342E-17
      4.64004167923302E-15  -6.47705709196059E-16
      4.74088544270578E-01
      0.00000000000000E+00   0.00000000000000E+00   0.00000000000000E+00   0.00000000000000E+00  -1.06537889459714E-04
      0.00000000000000E+00  -1.06537889459714E-04  -6.42158965883404E-17   1.18522136067644E+00   1.18522136067644E+00
      0.00000000000000E+00   0.00000000000000E+00   1.06537889461660E-04   0.00000000000000E+00   1.06537889461660E-04
      2.83945975635869E-16   1.00000000000000E+00   1.00000000000000E+00   0.00000000000000E+00   0.00000000000000E+00
     -2.79213626766742E-36   2.79213626766742E-36   0.00000000000000E+00   4.59215376897831E-16   0.00000000000000E+00
      0.00000000000000E+00   0.00000000000000E+00   0.00000000000000E+00  -9.24345561631836E-16  -5.84317981147995E-17
     -9.82777359746636E-16  -6.73445790344763E-16
      5.74088544270578E-01
      0.00000000000000E+00   0.00000000000000E+00   0.00000000000000E+00   0.00000000000000E+00  -1.13199383342674E-04
      0.00000000000000E+00  -1.13199383342674E-04  -6.68938622591893E-17   1.43522136067644E+00   1.43522136067644E+00
      0.00000000000000E+00   0.00000000000000E+00   1.13199383343107E-04   0.00000000000000E+00   1.13199383343107E-04
      3.53723517935878E-16   1.00000000000000E+00   1.00000000000000E+00   0.00000000000000E+00   0.00000000000000E+00
     -2.74025484398928E-36   2.74025484398928E-36   0.00000000000000E+00   4.17625830865809E-16   0.00000000000000E+00
      0.00000000000000E+00   0.00000000000000E+00   0.00000000000000E+00  -1.94897389939078E-15  -6.22998511652020E-17
     -2.01127375055598E-15  -7.00849442287594E-16
      6.74088544270578E-01
      0.00000000000000E+00   0.00000000000000E+00   0.00000000000000E+00   0.00000000000000E+00  -1.19451627867305E-04
      0.00000000000000E+00  -1.19451627867305E-04  -6.93726100753211E-17   1.68522136067644E+00   1.68522136067644E+00
      0.00000000000000E+00   0.00000000000000E+00   1.19451627870544E-04   0.00000000000000E+00   1.19451627870544E-04
      4.23704843480729E-16   1.00000000000000E+00   1.00000000000000E+00   0.00000000000000E+00   0.00000000000000E+00
     -2.70165195497318E-36   2.70165195497318E-36   0.00000000000000E+00   3.76643016308053E-16   0.00000000000000E+00
      0.00000000000000E+00   0.00000000000000E+00   0.00000000000000E+00  -2.15865553644096E-15  -6.52923649912269E-17
     -2.22394790143219E-15  -7.29265354210651E-16
      7.74088544270578E-01
      0.00000000000000E+00   0.00000000000000E+00   0.00000000000000E+00   0.00000000000000E+00  -1.25394890833747E-04
      0.00000000000000E+00  -1.25394890833747E-04  -7.16893420280777E-17   1.93522136067644E+00   1.93522136067644E+00
      0.00000000000000E+00   0.00000000000000E+00   1.25394890825131E-04   0.00000000000000E+00   1.25394890825131E-04
      4.93681906223446E-16   1.00000000000000E+00   1.00000000000000E+00   0.00000000000000E+00   0.00000000000000E+00
     -2.88168455484904E-36   2.88168455484904E-36   0.00000000000000E+00   3.36240752352515E-16   0.00000000000000E+00
      0.00000000000000E+00   0.00000000000000E+00   0.00000000000000E+00  -2.12260134930381E-15  -6.81288404441927E-17
     -2.19073018974800E-15  -7.58422372586394E-16
      8.74088544270578E-01
      0.00000000000000E+00   0.00000000000000E+00   0.00000000000000E+00   0.00000000000000E+00  -1.31095616124822E-04
      0.00000000000000E+00  -1.31095616124822E-04  -7.38719653692758E-17   2.18522136067644E+00   2.18522136067644E+00
      0.00000000000000E+00   0.00000000000000E+00   1.31095616137210E-04   0.00000000000000E+00   1.31095616137210E-04
      5.63412298948838E-16   1.00000000000000E+00   1.00000000000000E+00   0.00000000000000E+00   0.00000000000000E+00
     -2.89490330248849E-36   2.89490330248849E-36   0.00000000000000E+00   2.96405336439128E-16   0.00000000000000E+00
      0.00000000000000E+00   0.00000000000000E+00   0.00000000000000E+00  -2.14277487593399E-15  -7.06306299127587E-17
     -2.21340550584675E-15  -7.88036780244480E-16
      9.74088544270578E-01
      0.00000000000000E+00   0.00000000000000E+00   0.00000000000000E+00   0.00000000000000E+00  -1.36587528604891E-04
      0.00000000000000E+00  -1.36587528604891E-04  -7.59391446528019E-17   2.43522136067644E+00   2.43522136067644E+00
      0.00000000000000E+00   0.00000000000000E+00   1.36587528613309E-04   0.00000000000000E+00   1.36587528613309E-04
      6.32689372475429E-16   1.00000000000000E+00   1.00000000000000E+00   0.00000000000000E+00   0.00000000000000E+00
     -2.76508264308187E-36   2.76508264308187E-36   0.00000000000000E+00   2.57231168053130E-16   0.00000000000000E+00
      0.00000000000000E+00   0.00000000000000E+00   0.00000000000000E+00  -2.30972552283658E-15  -7.24846886567915E-17
     -2.38221021149337E-15  -8.17978094786288E-16
      1.00000000000000E+00
      0.00000000000000E+00   0.00000000000000E+00   0.00000000000000E+00   0.00000000000000E+00  -1.37979402196087E-04
      0.00000000000000E+00  -1.37979402196087E-04  -7.64577751424093E-17   2.50000000000000E+00   2.50000000000000E+00
      0.00000000000000E+00   0.00000000000000E+00   1.37979402198128E-04   0.00000000000000E+00   1.37979402198128E-04
      6.50544076253018E-16   1.00000000000000E+00   1.00000000000000E+00   0.00000000000000E+00   0.00000000000000E+00
     -2.92236971164307E-36   2.92236971164307E-36   0.00000000000000E+00   2.47201306064457E-16   0.00000000000000E+00
      0.00000000000000E+00   0.00000000000000E+00   0.00000000000000E+00  -2.53892324443577E-15  -7.28664991218934E-17
     -2.61178974355767E-15  -8.25778701568506E-16
}
