DF-ISE text

Info {
  version   = 1.0
  type      = xyplot
  datasets  = [
    "time"
    "source OuterVoltage" "source InnerVoltage" "source QuasiFermiPotential" "source DisplacementCurrent" "source eCurrent"
    "source hCurrent" "source TotalCurrent" "source Charge" "drain OuterVoltage" "drain InnerVoltage"
    "drain QuasiFermiPotential" "drain DisplacementCurrent" "drain eCurrent" "drain hCurrent" "drain TotalCurrent"
    "drain Charge" "gate OuterVoltage" "gate InnerVoltage" "gate QuasiFermiPotential" "gate DisplacementCurrent"
    "gate eCurrent" "gate hCurrent" "gate TotalCurrent" "gate Charge" "substrate OuterVoltage"
    "substrate InnerVoltage" "substrate QuasiFermiPotential" "substrate DisplacementCurrent" "substrate eCurrent" "substrate hCurrent"
    "substrate TotalCurrent" "substrate Charge" ]
  functions = [
    Time
    OuterVoltage InnerVoltage QuasiFermiPotential DisplacementCurrent eCurrent
    hCurrent TotalCurrent Charge OuterVoltage InnerVoltage
    QuasiFermiPotential DisplacementCurrent eCurrent hCurrent TotalCurrent
    Charge OuterVoltage InnerVoltage QuasiFermiPotential DisplacementCurrent
    eCurrent hCurrent TotalCurrent Charge OuterVoltage
    InnerVoltage QuasiFermiPotential DisplacementCurrent eCurrent hCurrent
    TotalCurrent Charge ]
}

Data {
      0.00000000000000E+00
      0.00000000000000E+00   0.00000000000000E+00   0.00000000000000E+00   0.00000000000000E+00   3.51570221851455E-18
      0.00000000000000E+00   3.51570221851455E-18   1.23946732949061E-17   0.00000000000000E+00   0.00000000000000E+00
      0.00000000000000E+00   0.00000000000000E+00   9.12839437283566E-18   0.00000000000000E+00   9.12839437283566E-18
      1.30609275333968E-17   1.00000000000000E+00   1.00000000000000E+00   0.00000000000000E+00   0.00000000000000E+00
     -4.47101753698695E-36   4.47101753698695E-36   0.00000000000000E+00   7.25469470266057E-16   0.00000000000000E+00
      0.00000000000000E+00   0.00000000000000E+00   0.00000000000000E+00  -1.28617800308699E-17  -3.91656606981641E-31
     -1.28617800308703E-17  -7.23856329478773E-16
      1.00000000000000E-02
      0.00000000000000E+00   0.00000000000000E+00   0.00000000000000E+00   0.00000000000000E+00  -4.09316692903141E-06
      0.00000000000000E+00  -4.09316692903141E-06   1.17742874692243E-17   2.50000000000000E-02   2.50000000000000E-02
      0.00000000000000E+00   0.00000000000000E+00   4.09316692939454E-06   0.00000000000000E+00   4.09316692939454E-06
      1.60399058738806E-17   1.00000000000000E+00   1.00000000000000E+00   0.00000000000000E+00   0.00000000000000E+00
     -4.43589558210665E-36   4.43589558210665E-36   0.00000000000000E+00   7.16982978511344E-16   0.00000000000000E+00
      0.00000000000000E+00   0.00000000000000E+00   0.00000000000000E+00  -3.54694282770562E-16  -7.46790229897518E-18
     -3.62162185069537E-16  -7.18011109726447E-16
      2.46000000000000E-02
      0.00000000000000E+00   0.00000000000000E+00   0.00000000000000E+00   0.00000000000000E+00  -9.67401341050358E-06
      0.00000000000000E+00  -9.67401341050358E-06   1.08684805858964E-17   6.15000000000000E-02   6.15000000000000E-02
      0.00000000000000E+00   0.00000000000000E+00   9.67401341111696E-06   0.00000000000000E+00   9.67401341111696E-06
      2.04232108858136E-17   1.00000000000000E+00   1.00000000000000E+00   0.00000000000000E+00   0.00000000000000E+00
     -4.35755190191482E-36   4.35755190191482E-36   0.00000000000000E+00   7.04666976782442E-16   0.00000000000000E+00
      0.00000000000000E+00   0.00000000000000E+00   0.00000000000000E+00  -5.97951725953008E-16  -1.45275498296173E-17
     -6.12479275782626E-16  -7.09582076998288E-16
      4.59160000000000E-02
      0.00000000000000E+00   0.00000000000000E+00   0.00000000000000E+00   0.00000000000000E+00  -1.70015327449282E-05
      0.00000000000000E+00  -1.70015327449282E-05   9.54825481451646E-18   1.14790000000000E-01   1.14790000000000E-01
      0.00000000000000E+00   0.00000000000000E+00   1.70015327456911E-05   0.00000000000000E+00   1.70015327456911E-05
      2.68950317041992E-17   1.00000000000000E+00   1.00000000000000E+00   0.00000000000000E+00   0.00000000000000E+00
     -4.55804066350944E-36   4.55804066350944E-36   0.00000000000000E+00   6.86865120770267E-16   0.00000000000000E+00
      0.00000000000000E+00   0.00000000000000E+00   0.00000000000000E+00  -7.48363265079484E-16  -2.16945724098139E-17
     -7.70057837489298E-16  -6.97519575899673E-16
      7.70373600000000E-02
      0.00000000000000E+00   0.00000000000000E+00   0.00000000000000E+00   0.00000000000000E+00  -2.61169865043973E-05
      0.00000000000000E+00  -2.61169865043973E-05   7.63566611401105E-18   1.92593400000000E-01   1.92593400000000E-01
      0.00000000000000E+00   0.00000000000000E+00   2.61169865052973E-05   0.00000000000000E+00   2.61169865052973E-05
      3.65005522672932E-17   1.00000000000000E+00   1.00000000000000E+00   0.00000000000000E+00   0.00000000000000E+00
     -4.38137856197169E-36   4.38137856197169E-36   0.00000000000000E+00   6.61335480407353E-16   0.00000000000000E+00
      0.00000000000000E+00   0.00000000000000E+00   0.00000000000000E+00  -9.37048819426499E-16  -2.97101932817726E-17
     -9.66759012708272E-16  -6.80507144544152E-16
      1.22059594133333E-01
      0.00000000000000E+00   0.00000000000000E+00   0.00000000000000E+00   0.00000000000000E+00  -3.64968035020051E-05
      0.00000000000000E+00  -3.64968035020051E-05   4.93954456891349E-18   3.05148985333333E-01   3.05148985333333E-01
      0.00000000000000E+00   0.00000000000000E+00   3.64968035030923E-05   0.00000000000000E+00   3.64968035030923E-05
      5.07528908312680E-17   1.00000000000000E+00   1.00000000000000E+00   0.00000000000000E+00   0.00000000000000E+00
     -4.45593840911448E-36   4.45593840911448E-36   0.00000000000000E+00   6.25673618841721E-16   0.00000000000000E+00
      0.00000000000000E+00   0.00000000000000E+00   0.00000000000000E+00  -1.06505534392447E-15  -3.91047458140218E-17
     -1.10416008973849E-15  -6.57480611673330E-16
      1.87191759512889E-01
      0.00000000000000E+00   0.00000000000000E+00   0.00000000000000E+00   0.00000000000000E+00  -4.69315444559168E-05
      0.00000000000000E+00  -4.69315444559168E-05   1.31095986919583E-18   4.67979398782222E-01   4.67979398782222E-01
      0.00000000000000E+00   0.00000000000000E+00   4.69315444572061E-05   0.00000000000000E+00   4.69315444572061E-05
      7.22957215397536E-17   1.00000000000000E+00   1.00000000000000E+00   0.00000000000000E+00   0.00000000000000E+00
     -4.38547966287285E-36   4.38547966287285E-36   0.00000000000000E+00   5.78020361167594E-16   0.00000000000000E+00
      0.00000000000000E+00   0.00000000000000E+00   0.00000000000000E+00  -1.24636148139030E-15  -4.96656769492140E-17
     -1.29602715833951E-15  -6.28973394947784E-16
      2.80547863223585E-01
      0.00000000000000E+00   0.00000000000000E+00   0.00000000000000E+00   0.00000000000000E+00  -5.54096667566104E-05
      0.00000000000000E+00  -5.54096667566104E-05  -3.06330912221808E-18   7.01369658058963E-01   7.01369658058963E-01
      0.00000000000000E+00   0.00000000000000E+00   5.54096667580955E-05   0.00000000000000E+00   5.54096667580955E-05
      1.05876954258417E-16   1.00000000000000E+00   1.00000000000000E+00   0.00000000000000E+00   0.00000000000000E+00
     -4.26550517801459E-36   4.26550517801459E-36   0.00000000000000E+00   5.22770064638742E-16   0.00000000000000E+00
      0.00000000000000E+00   0.00000000000000E+00   0.00000000000000E+00  -1.48820015242724E-15  -6.01965690228346E-17
     -1.54839672145008E-15  -6.04030797273420E-16
      3.80547863223585E-01
      0.00000000000000E+00   0.00000000000000E+00   0.00000000000000E+00   0.00000000000000E+00  -6.00654276895063E-05
      0.00000000000000E+00  -6.00654276895063E-05  -6.64321053723883E-18   9.51369658058963E-01   9.51369658058963E-01
      0.00000000000000E+00   0.00000000000000E+00   6.00654276912973E-05   0.00000000000000E+00   6.00654276912973E-05
      1.44359757990554E-16   1.00000000000000E+00   1.00000000000000E+00   0.00000000000000E+00   0.00000000000000E+00
     -4.40471125777554E-36   4.40471125777554E-36   0.00000000000000E+00   4.82444943941077E-16   0.00000000000000E+00
      0.00000000000000E+00   0.00000000000000E+00   0.00000000000000E+00  -1.70879412288379E-15  -6.73067601923054E-17
     -1.77610088307609E-15  -5.99421622857790E-16
      4.80547863223585E-01
      0.00000000000000E+00   0.00000000000000E+00   0.00000000000000E+00   0.00000000000000E+00  -6.30962338833408E-05
      0.00000000000000E+00  -6.30962338833408E-05  -9.54118599286694E-18   1.20136965805896E+00   1.20136965805896E+00
      0.00000000000000E+00   0.00000000000000E+00   6.30962338852612E-05   0.00000000000000E+00   6.30962338852612E-05
      1.81257733004403E-16   1.00000000000000E+00   1.00000000000000E+00   0.00000000000000E+00   0.00000000000000E+00
     -4.26973071682668E-36   4.26973071682668E-36   0.00000000000000E+00   4.52873586856794E-16   0.00000000000000E+00
      0.00000000000000E+00   0.00000000000000E+00   0.00000000000000E+00  -1.88213841620082E-15  -7.20016463663840E-17
     -1.95414006256721E-15  -6.04977019119575E-16
      5.80547863223585E-01
      0.00000000000000E+00   0.00000000000000E+00   0.00000000000000E+00   0.00000000000000E+00  -6.54997228539660E-05
      0.00000000000000E+00  -6.54997228539660E-05  -1.20611917905522E-17   1.45136965805896E+00   1.45136965805896E+00
      0.00000000000000E+00   0.00000000000000E+00   6.54997228561142E-05   0.00000000000000E+00   6.54997228561142E-05
      2.15875151778952E-16   1.00000000000000E+00   1.00000000000000E+00   0.00000000000000E+00   0.00000000000000E+00
     -4.35519623481980E-36   4.35519623481980E-36   0.00000000000000E+00   4.28121162892387E-16   0.00000000000000E+00
      0.00000000000000E+00   0.00000000000000E+00   0.00000000000000E+00  -2.02034467750853E-15  -7.55879058882313E-17
     -2.09593258339676E-15  -6.13855324030444E-16
      6.80547863223585E-01
      0.00000000000000E+00   0.00000000000000E+00   0.00000000000000E+00   0.00000000000000E+00  -6.75914165330528E-05
      0.00000000000000E+00  -6.75914165330528E-05  -1.43403955538564E-17   1.70136965805896E+00   1.70136965805896E+00
      0.00000000000000E+00   0.00000000000000E+00   6.75914165353336E-05   0.00000000000000E+00   6.75914165353336E-05
      2.48982773244635E-16   1.00000000000000E+00   1.00000000000000E+00   0.00000000000000E+00   0.00000000000000E+00
     -4.34001529108703E-36   4.34001529108703E-36   0.00000000000000E+00   4.05749580628819E-16   0.00000000000000E+00
      0.00000000000000E+00   0.00000000000000E+00   0.00000000000000E+00  -2.15713722461389E-15  -7.81628458403576E-17
     -2.23530007045424E-15  -6.24249055356169E-16
      7.80547863223585E-01
      0.00000000000000E+00   0.00000000000000E+00   0.00000000000000E+00   0.00000000000000E+00  -6.95048760536317E-05
      0.00000000000000E+00  -6.95048760536317E-05  -1.64519538299559E-17   1.95136965805896E+00   1.95136965805896E+00
      0.00000000000000E+00   0.00000000000000E+00   6.95048760560933E-05   0.00000000000000E+00   6.95048760560933E-05
      2.81180758435183E-16   1.00000000000000E+00   1.00000000000000E+00   0.00000000000000E+00   0.00000000000000E+00
     -4.37113085553907E-36   4.37113085553907E-36   0.00000000000000E+00   3.84598457114859E-16   0.00000000000000E+00
      0.00000000000000E+00   0.00000000000000E+00   0.00000000000000E+00  -2.26650675378733E-15  -8.01415826726242E-17
     -2.34664833645995E-15  -6.35553699165991E-16
      8.80547863223585E-01
      0.00000000000000E+00   0.00000000000000E+00   0.00000000000000E+00   0.00000000000000E+00  -7.13034860839611E-05
      0.00000000000000E+00  -7.13034860839611E-05  -1.84360074314714E-17   2.20136965805896E+00   2.20136965805896E+00
      0.00000000000000E+00   0.00000000000000E+00   7.13034860863691E-05   0.00000000000000E+00   7.13034860863691E-05
      3.12810279738208E-16   1.00000000000000E+00   1.00000000000000E+00   0.00000000000000E+00   0.00000000000000E+00
     -4.50482732676463E-36   4.50482732676463E-36   0.00000000000000E+00   3.64107902662311E-16   0.00000000000000E+00
      0.00000000000000E+00   0.00000000000000E+00   0.00000000000000E+00  -2.36590945233686E-15  -8.20153770866512E-17
     -2.44792482942351E-15  -6.47523492791083E-16
      9.80547863223585E-01
      0.00000000000000E+00   0.00000000000000E+00   0.00000000000000E+00   0.00000000000000E+00  -7.30190554685435E-05
      0.00000000000000E+00  -7.30190554685435E-05  -2.03154639300584E-17   2.45136965805896E+00   2.45136965805896E+00
      0.00000000000000E+00   0.00000000000000E+00   7.30190554710058E-05   0.00000000000000E+00   7.30190554710058E-05
      3.44080038504250E-16   1.00000000000000E+00   1.00000000000000E+00   0.00000000000000E+00   0.00000000000000E+00
     -4.30511456457693E-36   4.30511456457693E-36   0.00000000000000E+00   3.44028272344346E-16   0.00000000000000E+00
      0.00000000000000E+00   0.00000000000000E+00   0.00000000000000E+00  -2.46357393746075E-15  -8.37646760848129E-17
     -2.54733861354556E-15  -6.60033474540090E-16
      1.00000000000000E+00
      0.00000000000000E+00   0.00000000000000E+00   0.00000000000000E+00   0.00000000000000E+00  -7.33450543513542E-05
      0.00000000000000E+00  -7.33450543513542E-05  -2.06704483869363E-17   2.50000000000000E+00   2.50000000000000E+00
      0.00000000000000E+00   0.00000000000000E+00   7.33450543539799E-05   0.00000000000000E+00   7.33450543539799E-05
      3.50130445342136E-16   1.00000000000000E+00   1.00000000000000E+00   0.00000000000000E+00   0.00000000000000E+00
     -4.50636510876377E-36   4.50636510876377E-36   0.00000000000000E+00   3.40153870092826E-16   0.00000000000000E+00
      0.00000000000000E+00   0.00000000000000E+00   0.00000000000000E+00  -2.48376473025350E-15  -8.40697726257436E-17
     -2.56783450287925E-15  -6.62522240684519E-16
}
