DF-ISE text

Info {
  version   = 1.0
  type      = xyplot
  datasets  = [
    "time"
    "source OuterVoltage" "source InnerVoltage" "source QuasiFermiPotential" "source DisplacementCurrent" "source eCurrent"
    "source hCurrent" "source TotalCurrent" "source Charge" "drain OuterVoltage" "drain InnerVoltage"
    "drain QuasiFermiPotential" "drain DisplacementCurrent" "drain eCurrent" "drain hCurrent" "drain TotalCurrent"
    "drain Charge" "gate OuterVoltage" "gate InnerVoltage" "gate QuasiFermiPotential" "gate DisplacementCurrent"
    "gate eCurrent" "gate hCurrent" "gate TotalCurrent" "gate Charge" "substrate OuterVoltage"
    "substrate InnerVoltage" "substrate QuasiFermiPotential" "substrate DisplacementCurrent" "substrate eCurrent" "substrate hCurrent"
    "substrate TotalCurrent" "substrate Charge" ]
  functions = [
    Time
    OuterVoltage InnerVoltage QuasiFermiPotential DisplacementCurrent eCurrent
    hCurrent TotalCurrent Charge OuterVoltage InnerVoltage
    QuasiFermiPotential DisplacementCurrent eCurrent hCurrent TotalCurrent
    Charge OuterVoltage InnerVoltage QuasiFermiPotential DisplacementCurrent
    eCurrent hCurrent TotalCurrent Charge OuterVoltage
    InnerVoltage QuasiFermiPotential DisplacementCurrent eCurrent hCurrent
    TotalCurrent Charge ]
}

Data {
      0.00000000000000E+00
      0.00000000000000E+00   0.00000000000000E+00   0.00000000000000E+00   0.00000000000000E+00  -8.55775488062642E-18
      0.00000000000000E+00  -8.55775488062642E-18   6.72564963294659E-17   0.00000000000000E+00   0.00000000000000E+00
      0.00000000000000E+00   0.00000000000000E+00  -4.19572877653073E-17   0.00000000000000E+00  -4.19572877653073E-17
      6.78364289319061E-17   0.00000000000000E+00   0.00000000000000E+00   0.00000000000000E+00   0.00000000000000E+00
     -2.09362851602497E-36   2.09362851602497E-36   0.00000000000000E+00   7.97821824946601E-17   0.00000000000000E+00
      0.00000000000000E+00   0.00000000000000E+00   0.00000000000000E+00   2.25480426321249E-19  -1.58587289213909E-31
      2.25480426321090E-19  -2.15217842115056E-16
      1.00000000000000E-02
      0.00000000000000E+00   0.00000000000000E+00   0.00000000000000E+00   0.00000000000000E+00  -9.77339179629300E-07
      0.00000000000000E+00  -9.77339179629300E-07   6.63886488912789E-17   2.50000000000000E-02   2.50000000000000E-02
      0.00000000000000E+00   0.00000000000000E+00   9.77339180029001E-07   0.00000000000000E+00   9.77339180029001E-07
      7.20409736020185E-17   0.00000000000000E+00   0.00000000000000E+00   0.00000000000000E+00   0.00000000000000E+00
     -1.97418039170555E-36   1.97418039170555E-36   0.00000000000000E+00   7.34387615958856E-17   0.00000000000000E+00
      0.00000000000000E+00   0.00000000000000E+00   0.00000000000000E+00  -3.53754319033743E-16  -6.35050978336660E-18
     -3.60104828817110E-16  -2.12510943979454E-16
      2.46000000000000E-02
      0.00000000000000E+00   0.00000000000000E+00   0.00000000000000E+00   0.00000000000000E+00  -1.90688415933472E-06
      0.00000000000000E+00  -1.90688415933472E-06   6.52795096521185E-17   6.15000000000000E-02   6.15000000000000E-02
      0.00000000000000E+00   0.00000000000000E+00   1.90688415991148E-06   0.00000000000000E+00   1.90688415991148E-06
      7.84748812381923E-17   0.00000000000000E+00   0.00000000000000E+00   0.00000000000000E+00   0.00000000000000E+00
     -1.74017193885316E-36   1.74017193885316E-36   0.00000000000000E+00   6.51327440917321E-17   0.00000000000000E+00
      0.00000000000000E+00   0.00000000000000E+00   0.00000000000000E+00  -5.53652078723317E-16  -1.23539989307815E-17
     -5.66006077654099E-16  -2.09977534428938E-16
      4.59160000000000E-02
      0.00000000000000E+00   0.00000000000000E+00   0.00000000000000E+00   0.00000000000000E+00  -2.63493494466500E-06
      0.00000000000000E+00  -2.63493494466500E-06   6.39546355138800E-17   1.14790000000000E-01   1.14790000000000E-01
      0.00000000000000E+00   0.00000000000000E+00   2.63493494530038E-06   0.00000000000000E+00   2.63493494530038E-06
      8.86589228066718E-17   0.00000000000000E+00   0.00000000000000E+00   0.00000000000000E+00   0.00000000000000E+00
     -2.04243649533112E-36   2.04243649533112E-36   0.00000000000000E+00   5.51148109147022E-17   0.00000000000000E+00
      0.00000000000000E+00   0.00000000000000E+00   0.00000000000000E+00  -6.61220785504384E-16  -1.79413912684881E-17
     -6.79162176772872E-16  -2.09499010087972E-16
      7.67531466666667E-02
      0.00000000000000E+00   0.00000000000000E+00   0.00000000000000E+00   0.00000000000000E+00  -3.29354041049628E-06
      0.00000000000000E+00  -3.29354041049628E-06   6.23373800004643E-17   1.91882866666667E-01   1.91882866666667E-01
      0.00000000000000E+00   0.00000000000000E+00   3.29354041127567E-06   0.00000000000000E+00   3.29354041127567E-06
      1.04791093168977E-16   0.00000000000000E+00   0.00000000000000E+00   0.00000000000000E+00   0.00000000000000E+00
     -2.01460427829827E-36   2.01460427829827E-36   0.00000000000000E+00   4.32831005572479E-17   0.00000000000000E+00
      0.00000000000000E+00   0.00000000000000E+00   0.00000000000000E+00  -7.60505503879726E-16  -2.35625267562951E-17
     -7.84068030636021E-16  -2.13234909959805E-16
      1.20953056888889E-01
      0.00000000000000E+00   0.00000000000000E+00   0.00000000000000E+00   0.00000000000000E+00  -4.13343548690295E-06
      0.00000000000000E+00  -4.13343548690295E-06   6.02014165927450E-17   3.02382642222222E-01   3.02382642222222E-01
      0.00000000000000E+00   0.00000000000000E+00   4.13343548784376E-06   0.00000000000000E+00   4.13343548784376E-06
      1.28819581491208E-16   0.00000000000000E+00   0.00000000000000E+00   0.00000000000000E+00   0.00000000000000E+00
     -1.86352155741689E-36   1.86352155741689E-36   0.00000000000000E+00   2.80132253257856E-17   0.00000000000000E+00
      0.00000000000000E+00   0.00000000000000E+00   0.00000000000000E+00   8.77258478926652E-15  -2.97423562056333E-17
      8.74284243306088E-15  -2.21518489956424E-16
      1.83716929404444E-01
      0.00000000000000E+00   0.00000000000000E+00   0.00000000000000E+00   0.00000000000000E+00  -5.31214011641933E-06
      0.00000000000000E+00  -5.31214011641933E-06   5.73465182494258E-17   4.59292323511111E-01   4.59292323511111E-01
      0.00000000000000E+00   0.00000000000000E+00   5.31214011748987E-06   0.00000000000000E+00   5.31214011748987E-06
      1.62296403781048E-16   0.00000000000000E+00   0.00000000000000E+00   0.00000000000000E+00   0.00000000000000E+00
     -1.84722649895411E-36   1.84722649895411E-36   0.00000000000000E+00   7.44761546795804E-18   0.00000000000000E+00
      0.00000000000000E+00   0.00000000000000E+00   0.00000000000000E+00  -1.06867354574680E-15  -3.65631819830573E-17
     -1.10523672772986E-15  -2.34221113903026E-16
      2.72841628376533E-01
      0.00000000000000E+00   0.00000000000000E+00   0.00000000000000E+00   0.00000000000000E+00  -7.03185675937529E-06
      0.00000000000000E+00  -7.03185675937529E-06   5.35587213185693E-17   6.82104070941333E-01   6.82104070941333E-01
      0.00000000000000E+00   0.00000000000000E+00   7.03185676077219E-06   0.00000000000000E+00   7.03185676077219E-06
      2.08190990846324E-16   0.00000000000000E+00   0.00000000000000E+00   0.00000000000000E+00   0.00000000000000E+00
     -1.94276065412099E-36   1.94276065412099E-36   0.00000000000000E+00  -2.06605167911773E-17   0.00000000000000E+00
      0.00000000000000E+00   0.00000000000000E+00   0.00000000000000E+00  -1.29802417097943E-15  -4.39679330193392E-17
     -1.34199210399877E-15  -2.52502535228351E-16
      3.72841628376533E-01
      0.00000000000000E+00   0.00000000000000E+00   0.00000000000000E+00   0.00000000000000E+00  -9.04647666184825E-06
      0.00000000000000E+00  -9.04647666184825E-06   4.96227644281703E-17   9.32104070941333E-01   9.32104070941333E-01
      0.00000000000000E+00   0.00000000000000E+00   9.04647666346200E-06   0.00000000000000E+00   9.04647666346200E-06
      2.58069224386293E-16   0.00000000000000E+00   0.00000000000000E+00   0.00000000000000E+00   0.00000000000000E+00
     -1.78243862560085E-36   1.78243862560085E-36   0.00000000000000E+00  -5.12431723597080E-17   0.00000000000000E+00
      0.00000000000000E+00   0.00000000000000E+00   0.00000000000000E+00  -1.52626199596650E-15  -5.03703460957844E-17
     -1.57663234206229E-15  -2.73291335156332E-16
      4.72841628376533E-01
      0.00000000000000E+00   0.00000000000000E+00   0.00000000000000E+00   0.00000000000000E+00  -1.11460266191499E-05
      0.00000000000000E+00  -1.11460266191499E-05   4.59727657043667E-17   1.18210407094133E+00   1.18210407094133E+00
      0.00000000000000E+00   0.00000000000000E+00   1.11460266211085E-05   0.00000000000000E+00   1.11460266211085E-05
      3.06665266445994E-16   0.00000000000000E+00   0.00000000000000E+00   0.00000000000000E+00   0.00000000000000E+00
     -1.86518277284985E-36   1.86518277284985E-36   0.00000000000000E+00  -8.11374402765080E-17   0.00000000000000E+00
      0.00000000000000E+00   0.00000000000000E+00   0.00000000000000E+00  -1.72577014397182E-15  -5.53755569392052E-17
     -1.78114570091102E-15  -2.94308920355689E-16
      5.72841628376533E-01
      0.00000000000000E+00   0.00000000000000E+00   0.00000000000000E+00   0.00000000000000E+00  -1.33186487544364E-05
      0.00000000000000E+00  -1.33186487544364E-05   4.25678959176868E-17   1.43210407094133E+00   1.43210407094133E+00
      0.00000000000000E+00   0.00000000000000E+00   1.33186487565052E-05   0.00000000000000E+00   1.33186487565052E-05
      3.54258816314388E-16   0.00000000000000E+00   0.00000000000000E+00   0.00000000000000E+00   0.00000000000000E+00
     -2.04568088598895E-36   2.04568088598895E-36   0.00000000000000E+00  -1.10532032011730E-16   0.00000000000000E+00
      0.00000000000000E+00   0.00000000000000E+00   0.00000000000000E+00  -1.90019923574989E-15  -5.95835124692698E-17
     -1.95978274821916E-15  -3.15533235217839E-16
      6.72841628376533E-01
      0.00000000000000E+00   0.00000000000000E+00   0.00000000000000E+00   0.00000000000000E+00  -1.55512729343695E-05
      0.00000000000000E+00  -1.55512729343695E-05   3.93738871952795E-17   1.68210407094133E+00   1.68210407094133E+00
      0.00000000000000E+00   0.00000000000000E+00   1.55512729364038E-05   0.00000000000000E+00   1.55512729364038E-05
      4.00995414496626E-16   0.00000000000000E+00   0.00000000000000E+00   0.00000000000000E+00   0.00000000000000E+00
     -1.98646959785857E-36   1.98646959785857E-36   0.00000000000000E+00  -1.39530808754383E-16   0.00000000000000E+00
      0.00000000000000E+00   0.00000000000000E+00   0.00000000000000E+00  -2.05347748752205E-15  -6.28014080655401E-17
     -2.11627889558759E-15  -3.36944716783552E-16
      7.72841628376533E-01
      0.00000000000000E+00   0.00000000000000E+00   0.00000000000000E+00   0.00000000000000E+00  -1.78326331514544E-05
      0.00000000000000E+00  -1.78326331514544E-05   3.63615719425112E-17   1.93210407094133E+00   1.93210407094133E+00
      0.00000000000000E+00   0.00000000000000E+00   1.78326331536600E-05   0.00000000000000E+00   1.78326331536600E-05
      4.46984297309511E-16   0.00000000000000E+00   0.00000000000000E+00   0.00000000000000E+00   0.00000000000000E+00
     -1.94326660555421E-36   1.94326660555421E-36   0.00000000000000E+00  -1.68201261162419E-16   0.00000000000000E+00
      0.00000000000000E+00   0.00000000000000E+00   0.00000000000000E+00  -2.18920870457341E-15  -6.56284432469538E-17
     -2.25483714782036E-15  -3.58522071261354E-16
      8.72841628376533E-01
      0.00000000000000E+00   0.00000000000000E+00   0.00000000000000E+00   0.00000000000000E+00  -2.01524807920025E-05
      0.00000000000000E+00  -2.01524807920025E-05   3.35068318625781E-17   2.18210407094133E+00   2.18210407094133E+00
      0.00000000000000E+00   0.00000000000000E+00   2.01524807944832E-05   0.00000000000000E+00   2.01524807944832E-05
      4.92340971884451E-16   0.00000000000000E+00   0.00000000000000E+00   0.00000000000000E+00   0.00000000000000E+00
     -1.89309081603646E-36   1.89309081603646E-36   0.00000000000000E+00  -1.96597544729435E-16   0.00000000000000E+00
      0.00000000000000E+00   0.00000000000000E+00   0.00000000000000E+00  -2.30944850316585E-15  -6.83403601892891E-17
     -2.37778886335514E-15  -3.80248058042749E-16
      9.72841628376533E-01
      0.00000000000000E+00   0.00000000000000E+00   0.00000000000000E+00   0.00000000000000E+00  -2.25040098525687E-05
      0.00000000000000E+00  -2.25040098525687E-05   3.07886762852829E-17   2.43210407094133E+00   2.43210407094133E+00
      0.00000000000000E+00   0.00000000000000E+00   2.25040098548835E-05   0.00000000000000E+00   2.25040098548835E-05
      5.37155378814575E-16   0.00000000000000E+00   0.00000000000000E+00   0.00000000000000E+00   0.00000000000000E+00
     -1.87418801098136E-36   1.87418801098136E-36   0.00000000000000E+00  -2.24764346914976E-16   0.00000000000000E+00
      0.00000000000000E+00   0.00000000000000E+00   0.00000000000000E+00  -2.41814822459388E-15  -7.06242527914877E-17
     -2.48877247738537E-15  -4.02103792326632E-16
      1.00000000000000E+00
      0.00000000000000E+00   0.00000000000000E+00   0.00000000000000E+00   0.00000000000000E+00  -2.31471012881361E-05
      0.00000000000000E+00  -2.31471012881361E-05   3.00718096537548E-17   2.50000000000000E+00   2.50000000000000E+00
      0.00000000000000E+00   0.00000000000000E+00   2.31471012905021E-05   0.00000000000000E+00   2.31471012905021E-05
      5.49239883878927E-16   0.00000000000000E+00   0.00000000000000E+00   0.00000000000000E+00   0.00000000000000E+00
     -1.95840321201713E-36   1.95840321201713E-36   0.00000000000000E+00  -2.32378462004632E-16   0.00000000000000E+00
      0.00000000000000E+00   0.00000000000000E+00   0.00000000000000E+00  -2.44547754093173E-15  -7.11439479587499E-17
     -2.51662148889048E-15  -4.08060086328515E-16
}
