DF-ISE text

Info {
  version   = 1.0
  type      = xyplot
  datasets  = [
    "time"
    "source OuterVoltage" "source InnerVoltage" "source QuasiFermiPotential" "source DisplacementCurrent" "source eCurrent"
    "source hCurrent" "source TotalCurrent" "source Charge" "drain OuterVoltage" "drain InnerVoltage"
    "drain QuasiFermiPotential" "drain DisplacementCurrent" "drain eCurrent" "drain hCurrent" "drain TotalCurrent"
    "drain Charge" "gate OuterVoltage" "gate InnerVoltage" "gate QuasiFermiPotential" "gate DisplacementCurrent"
    "gate eCurrent" "gate hCurrent" "gate TotalCurrent" "gate Charge" "substrate OuterVoltage"
    "substrate InnerVoltage" "substrate QuasiFermiPotential" "substrate DisplacementCurrent" "substrate eCurrent" "substrate hCurrent"
    "substrate TotalCurrent" "substrate Charge" ]
  functions = [
    Time
    OuterVoltage InnerVoltage QuasiFermiPotential DisplacementCurrent eCurrent
    hCurrent TotalCurrent Charge OuterVoltage InnerVoltage
    QuasiFermiPotential DisplacementCurrent eCurrent hCurrent TotalCurrent
    Charge OuterVoltage InnerVoltage QuasiFermiPotential DisplacementCurrent
    eCurrent hCurrent TotalCurrent Charge OuterVoltage
    InnerVoltage QuasiFermiPotential DisplacementCurrent eCurrent hCurrent
    TotalCurrent Charge ]
}

Data {
      0.00000000000000E+00
      0.00000000000000E+00   0.00000000000000E+00   0.00000000000000E+00   0.00000000000000E+00   1.42611140650691E-16
      0.00000000000000E+00   1.42611140650691E-16   7.52938148830822E-17   0.00000000000000E+00   0.00000000000000E+00
      0.00000000000000E+00   0.00000000000000E+00   1.84812294837871E-15   0.00000000000000E+00   1.84812294837871E-15
      7.90081732525618E-17   0.00000000000000E+00   0.00000000000000E+00   0.00000000000000E+00   0.00000000000000E+00
     -1.18255607135403E-36   1.18255607135403E-36   0.00000000000000E+00   6.64674018181355E-17   0.00000000000000E+00
      0.00000000000000E+00   0.00000000000000E+00   0.00000000000000E+00  -3.02965517369750E-20   1.97034690288015E-31
     -3.02965517367780E-20  -2.20913072008309E-16
      1.00000000000000E-02
      0.00000000000000E+00   0.00000000000000E+00   0.00000000000000E+00   0.00000000000000E+00  -1.38558830398498E-06
      0.00000000000000E+00  -1.38558830398498E-06   7.42596564256206E-17   2.50000000000000E-02   2.50000000000000E-02
      0.00000000000000E+00   0.00000000000000E+00   1.38558830224183E-06   0.00000000000000E+00   1.38558830224183E-06
      8.43178455918360E-17   0.00000000000000E+00   0.00000000000000E+00   0.00000000000000E+00   0.00000000000000E+00
     -1.07480961040610E-36   1.07480961040610E-36   0.00000000000000E+00   5.96827725714841E-17   0.00000000000000E+00
      0.00000000000000E+00   0.00000000000000E+00   0.00000000000000E+00  -3.78711475628586E-16  -6.05404378573975E-18
     -3.84765519414326E-16  -2.18592993212707E-16
      2.46000000000000E-02
      0.00000000000000E+00   0.00000000000000E+00   0.00000000000000E+00   0.00000000000000E+00  -2.69813171412222E-06
      0.00000000000000E+00  -2.69813171412222E-06   7.29337398101008E-17   6.15000000000000E-02   6.15000000000000E-02
      0.00000000000000E+00   0.00000000000000E+00   2.69813171351445E-06   0.00000000000000E+00   2.69813171351445E-06
      9.23345775439073E-17   0.00000000000000E+00   0.00000000000000E+00   0.00000000000000E+00   0.00000000000000E+00
     -1.35666789460770E-36   1.35666789460770E-36   0.00000000000000E+00   5.05639025567064E-17   0.00000000000000E+00
      0.00000000000000E+00   0.00000000000000E+00   0.00000000000000E+00  -6.11483259913485E-16  -1.18680823566721E-17
     -6.23351342270157E-16  -2.16441010031226E-16
      4.59160000000000E-02
      0.00000000000000E+00   0.00000000000000E+00   0.00000000000000E+00   0.00000000000000E+00  -3.76949576219498E-06
      0.00000000000000E+00  -3.76949576219498E-06   7.13250730196116E-17   1.14790000000000E-01   1.14790000000000E-01
      0.00000000000000E+00   0.00000000000000E+00   3.76949576387107E-06   0.00000000000000E+00   3.76949576387107E-06
      1.04824197141746E-16   0.00000000000000E+00   0.00000000000000E+00   0.00000000000000E+00   0.00000000000000E+00
     -1.29554153482575E-36   1.29554153482575E-36   0.00000000000000E+00   3.89936754586642E-17   0.00000000000000E+00
      0.00000000000000E+00   0.00000000000000E+00   0.00000000000000E+00  -6.99824280002621E-16  -1.73453528354719E-17
     -7.17169632838093E-16  -2.16154980700328E-16
      7.67531466666667E-02
      0.00000000000000E+00   0.00000000000000E+00   0.00000000000000E+00   0.00000000000000E+00  -4.82654032785054E-06
      0.00000000000000E+00  -4.82654032785054E-06   6.93266766488087E-17   1.91882866666667E-01   1.91882866666667E-01
      0.00000000000000E+00   0.00000000000000E+00   4.82654032806915E-06   0.00000000000000E+00   4.82654032806915E-06
      1.24568795153347E-16   0.00000000000000E+00   0.00000000000000E+00   0.00000000000000E+00   0.00000000000000E+00
     -9.96036508919832E-37   9.96036508919832E-37   0.00000000000000E+00   2.44567865361980E-17   0.00000000000000E+00
      0.00000000000000E+00   0.00000000000000E+00   0.00000000000000E+00  -8.06041656174181E-16  -2.29507498318919E-17
     -8.28992406006073E-16  -2.19948061224992E-16
      1.20953056888889E-01
      0.00000000000000E+00   0.00000000000000E+00   0.00000000000000E+00   0.00000000000000E+00  -6.22358605110662E-06
      0.00000000000000E+00  -6.22358605110662E-06   6.66906892282522E-17   3.02382642222222E-01   3.02382642222222E-01
      0.00000000000000E+00   0.00000000000000E+00   6.22358605065066E-06   0.00000000000000E+00   6.22358605065066E-06
      1.54775083804381E-16   0.00000000000000E+00   0.00000000000000E+00   0.00000000000000E+00   0.00000000000000E+00
     -1.25683271279459E-36   1.25683271279459E-36   0.00000000000000E+00   5.05639272256470E-18   0.00000000000000E+00
      0.00000000000000E+00   0.00000000000000E+00   0.00000000000000E+00  -9.48445954996480E-16  -2.91610003867979E-17
     -9.77606955383278E-16  -2.28955484402460E-16
      1.83127597268148E-01
      0.00000000000000E+00   0.00000000000000E+00   0.00000000000000E+00   0.00000000000000E+00  -8.20833944971711E-06
      0.00000000000000E+00  -8.20833944971711E-06   6.32262603709245E-17   4.57818993170370E-01   4.57818993170370E-01
      0.00000000000000E+00   0.00000000000000E+00   8.20833945196678E-06   0.00000000000000E+00   8.20833945196678E-06
      1.98421790246134E-16   0.00000000000000E+00   0.00000000000000E+00   0.00000000000000E+00   0.00000000000000E+00
     -1.03521508101451E-36   1.03521508101451E-36   0.00000000000000E+00  -2.13008399180108E-17   0.00000000000000E+00
      0.00000000000000E+00   0.00000000000000E+00   0.00000000000000E+00  -1.13468132576342E-15  -3.59745819851616E-17
     -1.17065590774858E-15  -2.43959963982652E-16
      2.70586450734973E-01
      0.00000000000000E+00   0.00000000000000E+00   0.00000000000000E+00   0.00000000000000E+00  -1.11179205957132E-05
      0.00000000000000E+00  -1.11179205957132E-05   5.87104129131735E-17   6.76466126837432E-01   6.76466126837432E-01
      0.00000000000000E+00   0.00000000000000E+00   1.11179205932270E-05   0.00000000000000E+00   1.11179205932270E-05
      2.60102728584792E-16   0.00000000000000E+00   0.00000000000000E+00   0.00000000000000E+00   0.00000000000000E+00
     -1.23607695737164E-36   1.23607695737164E-36   0.00000000000000E+00  -5.75013429783165E-17   0.00000000000000E+00
      0.00000000000000E+00   0.00000000000000E+00   0.00000000000000E+00  -1.37113573887337E-15  -4.33126154794230E-17
     -1.41444835435280E-15  -2.66585852429309E-16
      3.70586450734973E-01
      0.00000000000000E+00   0.00000000000000E+00   0.00000000000000E+00   0.00000000000000E+00  -1.46240872123030E-05
      0.00000000000000E+00  -1.46240872123030E-05   5.39480537268236E-17   9.26466126837432E-01   9.26466126837432E-01
      0.00000000000000E+00   0.00000000000000E+00   1.46240872192339E-05   0.00000000000000E+00   1.46240872192339E-05
      3.30177168341390E-16   0.00000000000000E+00   0.00000000000000E+00   0.00000000000000E+00   0.00000000000000E+00
     -1.12883471238848E-36   1.12883471238848E-36   0.00000000000000E+00  -9.82477851047665E-17   0.00000000000000E+00
      0.00000000000000E+00   0.00000000000000E+00   0.00000000000000E+00  -1.60771488804323E-15  -4.97224092753027E-17
     -1.65743729731853E-15  -2.93053860444356E-16
      4.70586450734973E-01
      0.00000000000000E+00   0.00000000000000E+00   0.00000000000000E+00   0.00000000000000E+00  -1.82885525431712E-05
      0.00000000000000E+00  -1.82885525431712E-05   4.95326405908574E-17   1.17646612683743E+00   1.17646612683743E+00
      0.00000000000000E+00   0.00000000000000E+00   1.82885525523379E-05   0.00000000000000E+00   1.82885525523379E-05
      3.99791829524587E-16   0.00000000000000E+00   0.00000000000000E+00   0.00000000000000E+00   0.00000000000000E+00
     -1.05207323280437E-36   1.05207323280437E-36   0.00000000000000E+00  -1.38515920095775E-16   0.00000000000000E+00
      0.00000000000000E+00   0.00000000000000E+00   0.00000000000000E+00  -1.81142157972207E-15  -5.48728212203196E-17
     -1.86629440094239E-15  -3.19890268929668E-16
      5.70586450734973E-01
      0.00000000000000E+00   0.00000000000000E+00   0.00000000000000E+00   0.00000000000000E+00  -2.20731611976726E-05
      0.00000000000000E+00  -2.20731611976726E-05   4.54041484144524E-17   1.42646612683743E+00   1.42646612683743E+00
      0.00000000000000E+00   0.00000000000000E+00   2.20731612029534E-05   0.00000000000000E+00   2.20731612029534E-05
      4.69056783430062E-16   0.00000000000000E+00   0.00000000000000E+00   0.00000000000000E+00   0.00000000000000E+00
     -1.09195399681019E-36   1.09195399681019E-36   0.00000000000000E+00  -1.78364182492532E-16   0.00000000000000E+00
      0.00000000000000E+00   0.00000000000000E+00   0.00000000000000E+00  -1.98797528854088E-15  -5.88839118012224E-17
     -2.04685920034211E-15  -3.47086656346638E-16
      6.70586450734973E-01
      0.00000000000000E+00   0.00000000000000E+00   0.00000000000000E+00   0.00000000000000E+00  -2.59466381235606E-05
      0.00000000000000E+00  -2.59466381235606E-05   4.15168996948662E-17   1.67646612683743E+00   1.67646612683743E+00
      0.00000000000000E+00   0.00000000000000E+00   2.59466381219395E-05   0.00000000000000E+00   2.59466381219395E-05
      5.37947686616629E-16   0.00000000000000E+00   0.00000000000000E+00   0.00000000000000E+00   0.00000000000000E+00
     -1.14961376368751E-36   1.14961376368751E-36   0.00000000000000E+00  -2.17805592606801E-16   0.00000000000000E+00
      0.00000000000000E+00   0.00000000000000E+00   0.00000000000000E+00  -2.13832689227956E-15  -6.21030141461656E-17
     -2.20042990642572E-15  -3.74560000123789E-16
      7.70586450734973E-01
      0.00000000000000E+00   0.00000000000000E+00   0.00000000000000E+00   0.00000000000000E+00  -2.98809308780509E-05
      0.00000000000000E+00  -2.98809308780509E-05   3.78367998963305E-17   1.92646612683743E+00   1.92646612683743E+00
      0.00000000000000E+00   0.00000000000000E+00   2.98809308770026E-05   0.00000000000000E+00   2.98809308770026E-05
      6.06391213999002E-16   0.00000000000000E+00   0.00000000000000E+00   0.00000000000000E+00   0.00000000000000E+00
     -1.16384801233866E-36   1.16384801233866E-36   0.00000000000000E+00  -2.56807530587902E-16   0.00000000000000E+00
      0.00000000000000E+00   0.00000000000000E+00   0.00000000000000E+00  -2.27589370619631E-15  -6.51694631406368E-17
     -2.34106316933695E-15  -4.02235645467358E-16
      8.70586450734973E-01
      0.00000000000000E+00   0.00000000000000E+00   0.00000000000000E+00   0.00000000000000E+00  -3.38540833198979E-05
      0.00000000000000E+00  -3.38540833198979E-05   3.43374987286688E-17   2.17646612683743E+00   2.17646612683743E+00
      0.00000000000000E+00   0.00000000000000E+00   3.38540833166199E-05   0.00000000000000E+00   3.38540833166199E-05
      6.74259015773594E-16   0.00000000000000E+00   0.00000000000000E+00   0.00000000000000E+00   0.00000000000000E+00
     -1.07001604706134E-36   1.07001604706134E-36   0.00000000000000E+00  -2.95289845516454E-16   0.00000000000000E+00
      0.00000000000000E+00   0.00000000000000E+00   0.00000000000000E+00  -2.39702572654212E-15  -6.77828186998791E-17
     -2.46480854524200E-15  -4.30039353419011E-16
      9.70586450734973E-01
      0.00000000000000E+00   0.00000000000000E+00   0.00000000000000E+00   0.00000000000000E+00  -3.78483523525405E-05
      0.00000000000000E+00  -3.78483523525405E-05   3.09971945502753E-17   2.42646612683743E+00   2.42646612683743E+00
      0.00000000000000E+00   0.00000000000000E+00   3.78483523491880E-05   0.00000000000000E+00   3.78483523491880E-05
      7.41494297899138E-16   0.00000000000000E+00   0.00000000000000E+00   0.00000000000000E+00   0.00000000000000E+00
     -1.17434373769323E-36   1.17434373769323E-36   0.00000000000000E+00  -3.33223443550127E-16   0.00000000000000E+00
      0.00000000000000E+00   0.00000000000000E+00   0.00000000000000E+00  -2.50439755629312E-15  -6.97505587127972E-17
     -2.57414811500591E-15  -4.57921756962243E-16
      1.00000000000000E+00
      0.00000000000000E+00   0.00000000000000E+00   0.00000000000000E+00   0.00000000000000E+00  -3.90267937378154E-05
      0.00000000000000E+00  -3.90267937378154E-05   3.00414076179952E-17   2.50000000000000E+00   2.50000000000000E+00
      0.00000000000000E+00   0.00000000000000E+00   3.90267937314218E-05   0.00000000000000E+00   3.90267937314218E-05
      7.61177064155212E-16   0.00000000000000E+00   0.00000000000000E+00   0.00000000000000E+00   0.00000000000000E+00
     -1.05507059998580E-36   1.05507059998580E-36   0.00000000000000E+00  -3.44299849414983E-16   0.00000000000000E+00
      0.00000000000000E+00   0.00000000000000E+00   0.00000000000000E+00  -2.53344843219037E-15  -7.02512078450785E-17
     -2.60369964003545E-15  -4.66137965633603E-16
}
