DF-ISE text

Info {
  version   = 1.0
  type      = xyplot
  datasets  = [
    "time"
    "source OuterVoltage" "source InnerVoltage" "source QuasiFermiPotential" "source DisplacementCurrent" "source eCurrent"
    "source hCurrent" "source TotalCurrent" "source Charge" "drain OuterVoltage" "drain InnerVoltage"
    "drain QuasiFermiPotential" "drain DisplacementCurrent" "drain eCurrent" "drain hCurrent" "drain TotalCurrent"
    "drain Charge" "gate OuterVoltage" "gate InnerVoltage" "gate QuasiFermiPotential" "gate DisplacementCurrent"
    "gate eCurrent" "gate hCurrent" "gate TotalCurrent" "gate Charge" "substrate OuterVoltage"
    "substrate InnerVoltage" "substrate QuasiFermiPotential" "substrate DisplacementCurrent" "substrate eCurrent" "substrate hCurrent"
    "substrate TotalCurrent" "substrate Charge" ]
  functions = [
    Time
    OuterVoltage InnerVoltage QuasiFermiPotential DisplacementCurrent eCurrent
    hCurrent TotalCurrent Charge OuterVoltage InnerVoltage
    QuasiFermiPotential DisplacementCurrent eCurrent hCurrent TotalCurrent
    Charge OuterVoltage InnerVoltage QuasiFermiPotential DisplacementCurrent
    eCurrent hCurrent TotalCurrent Charge OuterVoltage
    InnerVoltage QuasiFermiPotential DisplacementCurrent eCurrent hCurrent
    TotalCurrent Charge ]
}

Data {
      0.00000000000000E+00
      0.00000000000000E+00   0.00000000000000E+00   0.00000000000000E+00   0.00000000000000E+00   7.87486416383819E-17
      0.00000000000000E+00   7.87486416383819E-17  -5.38259469885390E-17   0.00000000000000E+00   0.00000000000000E+00
      0.00000000000000E+00   0.00000000000000E+00  -2.70678065602973E-16   0.00000000000000E+00  -2.70678065602973E-16
     -2.05603551415261E-17   1.00000000000000E+00   1.00000000000000E+00   0.00000000000000E+00   0.00000000000000E+00
     -3.44080604762544E-36   3.44080604762544E-36   0.00000000000000E+00   7.21309647394173E-16   0.00000000000000E+00
      0.00000000000000E+00   0.00000000000000E+00   0.00000000000000E+00   1.13450171675378E-19  -7.57427593201932E-31
      1.13450171674620E-19  -6.32656646003743E-16
      1.00000000000000E-02
      0.00000000000000E+00   0.00000000000000E+00   0.00000000000000E+00   0.00000000000000E+00  -1.03442729477664E-05
      0.00000000000000E+00  -1.03442729477664E-05  -5.50109215846871E-17   2.50000000000000E-02   2.50000000000000E-02
      0.00000000000000E+00   0.00000000000000E+00   1.03442729499999E-05   0.00000000000000E+00   1.03442729499999E-05
     -1.55349127009170E-17   1.00000000000000E+00   1.00000000000000E+00   0.00000000000000E+00   0.00000000000000E+00
     -3.33157055148018E-36   3.33157055148018E-36   0.00000000000000E+00   7.12819876771431E-16   0.00000000000000E+00
      0.00000000000000E+00   0.00000000000000E+00   0.00000000000000E+00  -3.86842614712715E-16  -6.10986890286024E-18
     -3.92952483615575E-16  -6.28195425882155E-16
      2.46000000000000E-02
      0.00000000000000E+00   0.00000000000000E+00   0.00000000000000E+00   0.00000000000000E+00  -2.34781675222602E-05
      0.00000000000000E+00  -2.34781675222602E-05  -5.66935431309907E-17   6.15000000000000E-02   6.15000000000000E-02
      0.00000000000000E+00   0.00000000000000E+00   2.34781675226653E-05   0.00000000000000E+00   2.34781675226653E-05
     -8.14934140956022E-18   1.00000000000000E+00   1.00000000000000E+00   0.00000000000000E+00   0.00000000000000E+00
     -3.45017242065639E-36   3.45017242065639E-36   0.00000000000000E+00   7.00572906131209E-16   0.00000000000000E+00
      0.00000000000000E+00   0.00000000000000E+00   0.00000000000000E+00  -6.13683028943574E-16  -1.21809942323918E-17
     -6.25864023175966E-16  -6.21926067189794E-16
      4.59160000000000E-02
      0.00000000000000E+00   0.00000000000000E+00   0.00000000000000E+00   0.00000000000000E+00  -3.89717835315066E-05
      0.00000000000000E+00  -3.89717835315066E-05  -5.90324539435000E-17   1.14790000000000E-01   1.14790000000000E-01
      0.00000000000000E+00   0.00000000000000E+00   3.89717835359159E-05   0.00000000000000E+00   3.89717835359159E-05
      2.76030616614431E-18   1.00000000000000E+00   1.00000000000000E+00   0.00000000000000E+00   0.00000000000000E+00
     -3.39238998031301E-36   3.39238998031301E-36   0.00000000000000E+00   6.83086425989778E-16   0.00000000000000E+00
      0.00000000000000E+00   0.00000000000000E+00   0.00000000000000E+00  -7.74759279023143E-16  -1.82497268230891E-17
     -7.93009005846232E-16  -6.13411455903448E-16
      7.70373600000000E-02
      0.00000000000000E+00   0.00000000000000E+00   0.00000000000000E+00   0.00000000000000E+00  -5.55014126871809E-05
      0.00000000000000E+00  -5.55014126871809E-05  -6.21579631963789E-17   1.92593400000000E-01   1.92593400000000E-01
      0.00000000000000E+00   0.00000000000000E+00   5.55014126887256E-05   0.00000000000000E+00   5.55014126887256E-05
      1.90601451129477E-17   1.00000000000000E+00   1.00000000000000E+00   0.00000000000000E+00   0.00000000000000E+00
     -3.32209015645945E-36   3.32209015645945E-36   0.00000000000000E+00   6.58665918927677E-16   0.00000000000000E+00
      0.00000000000000E+00   0.00000000000000E+00   0.00000000000000E+00  -8.63341881813940E-16  -2.47407960339803E-17
     -8.88082677847920E-16  -6.02751181007050E-16
      1.21644642666667E-01
      0.00000000000000E+00   0.00000000000000E+00   0.00000000000000E+00   0.00000000000000E+00  -7.06220458977725E-05
      0.00000000000000E+00  -7.06220458977725E-05  -6.59929384435915E-17   3.04111606666667E-01   3.04111606666667E-01
      0.00000000000000E+00   0.00000000000000E+00   7.06220459007786E-05   0.00000000000000E+00   7.06220459007786E-05
      4.36485877989685E-17   1.00000000000000E+00   1.00000000000000E+00   0.00000000000000E+00   0.00000000000000E+00
     -3.38335084188745E-36   3.38335084188745E-36   0.00000000000000E+00   6.26782048702088E-16   0.00000000000000E+00
      0.00000000000000E+00   0.00000000000000E+00   0.00000000000000E+00  -1.01954879736679E-15  -3.17560029743436E-17
     -1.05130480034114E-15  -5.92461065141444E-16
      1.84986984053333E-01
      0.00000000000000E+00   0.00000000000000E+00   0.00000000000000E+00   0.00000000000000E+00  -8.25348548169607E-05
      0.00000000000000E+00  -8.25348548169607E-05  -7.03007170526719E-17   4.62467460133333E-01   4.62467460133333E-01
      0.00000000000000E+00   0.00000000000000E+00   8.25348548193597E-05   0.00000000000000E+00   8.25348548193597E-05
      8.29242685137028E-17   1.00000000000000E+00   1.00000000000000E+00   0.00000000000000E+00   0.00000000000000E+00
     -3.41411639408310E-36   3.41411639408310E-36   0.00000000000000E+00   5.89000233948510E-16   0.00000000000000E+00
      0.00000000000000E+00   0.00000000000000E+00   0.00000000000000E+00  -1.21400231936459E-15  -3.90926298784088E-17
     -1.25309494924300E-15  -5.90841451643497E-16
      2.74088544270578E-01
      0.00000000000000E+00   0.00000000000000E+00   0.00000000000000E+00   0.00000000000000E+00  -9.25434820812824E-05
      0.00000000000000E+00  -9.25434820812824E-05  -7.51541823344821E-17   6.85221360676444E-01   6.85221360676444E-01
      0.00000000000000E+00   0.00000000000000E+00   9.25434820883725E-05   0.00000000000000E+00   9.25434820883725E-05
      1.46069996981594E-16   1.00000000000000E+00   1.00000000000000E+00   0.00000000000000E+00   0.00000000000000E+00
     -3.36182375497892E-36   3.36182375497892E-36   0.00000000000000E+00   5.45375304682106E-16   0.00000000000000E+00
      0.00000000000000E+00   0.00000000000000E+00   0.00000000000000E+00   1.24375906974074E-13  -4.65289274969526E-17
      1.24329378046577E-13  -6.07191383199503E-16
      3.74088544270578E-01
      0.00000000000000E+00   0.00000000000000E+00   0.00000000000000E+00   0.00000000000000E+00  -1.01202274974206E-04
      0.00000000000000E+00  -1.01202274974206E-04  -7.98975409561677E-17   9.35221360676444E-01   9.35221360676444E-01
      0.00000000000000E+00   0.00000000000000E+00   1.01202274972721E-04   0.00000000000000E+00   1.01202274972721E-04
      2.17405102112030E-16   1.00000000000000E+00   1.00000000000000E+00   0.00000000000000E+00   0.00000000000000E+00
     -3.51181234743473E-36   3.51181234743473E-36   0.00000000000000E+00   5.00823368602490E-16   0.00000000000000E+00
      0.00000000000000E+00   0.00000000000000E+00   0.00000000000000E+00  -1.67787539296874E-15  -5.26473017174953E-17
     -1.73052269468623E-15  -6.31123563798563E-16
      4.74088544270578E-01
      0.00000000000000E+00   0.00000000000000E+00   0.00000000000000E+00   0.00000000000000E+00  -1.08735443578596E-04
      0.00000000000000E+00  -1.08735443578596E-04  -8.41968659801325E-17   1.18522136067644E+00   1.18522136067644E+00
      0.00000000000000E+00   0.00000000000000E+00   1.08735443581260E-04   0.00000000000000E+00   1.08735443581260E-04
      2.88015827561360E-16   1.00000000000000E+00   1.00000000000000E+00   0.00000000000000E+00   0.00000000000000E+00
     -3.35911728712116E-36   3.35911728712116E-36   0.00000000000000E+00   4.58128932008377E-16   0.00000000000000E+00
      0.00000000000000E+00   0.00000000000000E+00   0.00000000000000E+00  -1.87329335863785E-15  -5.75165768579636E-17
     -1.93080993549581E-15  -6.56636128647964E-16
      5.74088544270578E-01
      0.00000000000000E+00   0.00000000000000E+00   0.00000000000000E+00   0.00000000000000E+00  -1.15635158238296E-04
      0.00000000000000E+00  -1.15635158238296E-04  -8.81755720824700E-17   1.43522136067644E+00   1.43522136067644E+00
      0.00000000000000E+00   0.00000000000000E+00   1.15635158232796E-04   0.00000000000000E+00   1.15635158232796E-04
      3.58714826202824E-16   1.00000000000000E+00   1.00000000000000E+00   0.00000000000000E+00   0.00000000000000E+00
     -3.32845433704905E-36   3.32845433704905E-36   0.00000000000000E+00   4.16387393095473E-16   0.00000000000000E+00
      0.00000000000000E+00   0.00000000000000E+00   0.00000000000000E+00  -2.04251053083556E-15  -6.11775270403216E-17
     -2.10368805787588E-15  -6.83513267220914E-16
      6.74088544270578E-01
      0.00000000000000E+00   0.00000000000000E+00   0.00000000000000E+00   0.00000000000000E+00  -1.22114277696866E-04
      0.00000000000000E+00  -1.22114277696866E-04  -9.19027832104483E-17   1.68522136067644E+00   1.68522136067644E+00
      0.00000000000000E+00   0.00000000000000E+00   1.22114277712909E-04   0.00000000000000E+00   1.22114277712909E-04
      4.29271471610364E-16   1.00000000000000E+00   1.00000000000000E+00   0.00000000000000E+00   0.00000000000000E+00
     -3.38280176396684E-36   3.38280176396684E-36   0.00000000000000E+00   3.75312379265238E-16   0.00000000000000E+00
      0.00000000000000E+00   0.00000000000000E+00   0.00000000000000E+00  -2.17313524620298E-15  -6.41759229425357E-17
     -2.23731116914552E-15  -7.11169057620477E-16
      7.74088544270578E-01
      0.00000000000000E+00   0.00000000000000E+00   0.00000000000000E+00   0.00000000000000E+00  -1.28274103344520E-04
      0.00000000000000E+00  -1.28274103344520E-04  -9.54204268812777E-17   1.93522136067644E+00   1.93522136067644E+00
      0.00000000000000E+00   0.00000000000000E+00   1.28274103330896E-04   0.00000000000000E+00   1.28274103330896E-04
      4.99554288754265E-16   1.00000000000000E+00   1.00000000000000E+00   0.00000000000000E+00   0.00000000000000E+00
     -3.31074738595145E-36   3.31074738595145E-36   0.00000000000000E+00   3.34874674321428E-16   0.00000000000000E+00
      0.00000000000000E+00   0.00000000000000E+00   0.00000000000000E+00  -2.31444316605422E-15  -6.70396288314622E-17
     -2.38148279488568E-15  -7.39401074916869E-16
      8.74088544270578E-01
      0.00000000000000E+00   0.00000000000000E+00   0.00000000000000E+00   0.00000000000000E+00  -1.34185084395017E-04
      0.00000000000000E+00  -1.34185084395017E-04  -9.87614619664359E-17   2.18522136067644E+00   2.18522136067644E+00
      0.00000000000000E+00   0.00000000000000E+00   1.34185084399575E-04   0.00000000000000E+00   1.34185084399575E-04
      5.69372047702952E-16   1.00000000000000E+00   1.00000000000000E+00   0.00000000000000E+00   0.00000000000000E+00
     -3.48114329668901E-36   3.48114329668901E-36   0.00000000000000E+00   2.95024344735928E-16   0.00000000000000E+00
      0.00000000000000E+00   0.00000000000000E+00   0.00000000000000E+00  -2.43308096366082E-15  -6.94006043785716E-17
     -2.50248156803939E-15  -7.67935342940749E-16
      9.74088544270578E-01
      0.00000000000000E+00   0.00000000000000E+00   0.00000000000000E+00   0.00000000000000E+00  -1.39881575005052E-04
      0.00000000000000E+00  -1.39881575005052E-04  -1.01947194582320E-16   2.43522136067644E+00   2.43522136067644E+00
      0.00000000000000E+00   0.00000000000000E+00   1.39881575004550E-04   0.00000000000000E+00   1.39881575004550E-04
      6.38600987139666E-16   1.00000000000000E+00   1.00000000000000E+00   0.00000000000000E+00   0.00000000000000E+00
     -3.31245496505938E-36   3.31245496505938E-36   0.00000000000000E+00   2.55829825397278E-16   0.00000000000000E+00
      0.00000000000000E+00   0.00000000000000E+00   0.00000000000000E+00  -2.53535507204067E-15  -7.10915130848011E-17
     -2.60644658512547E-15  -7.96695471179686E-16
      1.00000000000000E+00
      0.00000000000000E+00   0.00000000000000E+00   0.00000000000000E+00   0.00000000000000E+00  -1.41326621151410E-04
      0.00000000000000E+00  -1.41326621151410E-04  -1.02749743020459E-16   2.50000000000000E+00   2.50000000000000E+00
      0.00000000000000E+00   0.00000000000000E+00   1.41326621139233E-04   0.00000000000000E+00   1.41326621139233E-04
      6.56428445890878E-16   1.00000000000000E+00   1.00000000000000E+00   0.00000000000000E+00   0.00000000000000E+00
     -3.34642505706870E-36   3.34642505706870E-36   0.00000000000000E+00   2.45783770360744E-16   0.00000000000000E+00
      0.00000000000000E+00   0.00000000000000E+00   0.00000000000000E+00  -2.56125765665327E-15  -7.14409410095600E-17
     -2.63269859766283E-15  -8.04170216538149E-16
}
