DF-ISE text

Info {
  version   = 1.0
  type      = xyplot
  datasets  = [
    "time"
    "source OuterVoltage" "source InnerVoltage" "source QuasiFermiPotential" "source DisplacementCurrent" "source eCurrent"
    "source hCurrent" "source TotalCurrent" "source Charge" "drain OuterVoltage" "drain InnerVoltage"
    "drain QuasiFermiPotential" "drain DisplacementCurrent" "drain eCurrent" "drain hCurrent" "drain TotalCurrent"
    "drain Charge" "gate OuterVoltage" "gate InnerVoltage" "gate QuasiFermiPotential" "gate DisplacementCurrent"
    "gate eCurrent" "gate hCurrent" "gate TotalCurrent" "gate Charge" "substrate OuterVoltage"
    "substrate InnerVoltage" "substrate QuasiFermiPotential" "substrate DisplacementCurrent" "substrate eCurrent" "substrate hCurrent"
    "substrate TotalCurrent" "substrate Charge" ]
  functions = [
    Time
    OuterVoltage InnerVoltage QuasiFermiPotential DisplacementCurrent eCurrent
    hCurrent TotalCurrent Charge OuterVoltage InnerVoltage
    QuasiFermiPotential DisplacementCurrent eCurrent hCurrent TotalCurrent
    Charge OuterVoltage InnerVoltage QuasiFermiPotential DisplacementCurrent
    eCurrent hCurrent TotalCurrent Charge OuterVoltage
    InnerVoltage QuasiFermiPotential DisplacementCurrent eCurrent hCurrent
    TotalCurrent Charge ]
}

Data {
      0.00000000000000E+00
      0.00000000000000E+00   0.00000000000000E+00   0.00000000000000E+00   0.00000000000000E+00  -2.78160726107810E-17
      0.00000000000000E+00  -2.78160726107810E-17  -6.74922451615871E-20   0.00000000000000E+00   0.00000000000000E+00
      0.00000000000000E+00   0.00000000000000E+00  -4.15750940261019E-18   0.00000000000000E+00  -4.15750940261019E-18
     -1.85612466536677E-20   1.00000000000000E+00   1.00000000000000E+00   0.00000000000000E+00   0.00000000000000E+00
     -1.14982388882458E-36   1.14982388882458E-36   0.00000000000000E+00   7.24677387030549E-16   0.00000000000000E+00
      0.00000000000000E+00   0.00000000000000E+00   0.00000000000000E+00   1.80998664752609E-19   1.01664178751318E-33
      1.80998664752610E-19  -7.01746776333559E-16
      1.00000000000000E-02
      0.00000000000000E+00   0.00000000000000E+00   0.00000000000000E+00   0.00000000000000E+00  -7.19938790901929E-06
      0.00000000000000E+00  -7.19938790901929E-06  -1.09343468877716E-18   2.50000000000000E-02   2.50000000000000E-02
      0.00000000000000E+00   0.00000000000000E+00   7.19938790940423E-06   0.00000000000000E+00   7.19938790940423E-06
      4.08626137706657E-18   1.00000000000000E+00   1.00000000000000E+00   0.00000000000000E+00   0.00000000000000E+00
     -8.98026284482104E-37   8.98026284482104E-37   0.00000000000000E+00   7.16182373414887E-16   0.00000000000000E+00
      0.00000000000000E+00   0.00000000000000E+00   0.00000000000000E+00  -3.92019614512670E-16  -6.40221299326203E-18
     -3.98421827505932E-16  -6.96574219560465E-16
      2.46000000000000E-02
      0.00000000000000E+00   0.00000000000000E+00   0.00000000000000E+00   0.00000000000000E+00  -1.68346004047962E-05
      0.00000000000000E+00  -1.68346004047962E-05  -2.59013636853587E-18   6.15000000000000E-02   6.15000000000000E-02
      0.00000000000000E+00   0.00000000000000E+00   1.68346004054629E-05   0.00000000000000E+00   1.68346004054629E-05
      1.01342731266981E-17   1.00000000000000E+00   1.00000000000000E+00   0.00000000000000E+00   0.00000000000000E+00
     -9.64081465736891E-37   9.64081465736891E-37   0.00000000000000E+00   7.03881586101195E-16   0.00000000000000E+00
      0.00000000000000E+00   0.00000000000000E+00   0.00000000000000E+00  -6.38319698286572E-16  -1.28171506473572E-17
     -6.51136848933930E-16  -6.89181735435903E-16
      4.59160000000000E-02
      0.00000000000000E+00   0.00000000000000E+00   0.00000000000000E+00   0.00000000000000E+00  -2.90773359453912E-05
      0.00000000000000E+00  -2.90773359453912E-05  -4.75663078736703E-18   1.14790000000000E-01   1.14790000000000E-01
      0.00000000000000E+00   0.00000000000000E+00   2.90773359463172E-05   0.00000000000000E+00   2.90773359463172E-05
      1.90932922570502E-17   1.00000000000000E+00   1.00000000000000E+00   0.00000000000000E+00   0.00000000000000E+00
     -9.59557722750068E-37   9.59557722750068E-37   0.00000000000000E+00   6.86197164083511E-16   0.00000000000000E+00
      0.00000000000000E+00   0.00000000000000E+00   0.00000000000000E+00  -7.83923927130004E-16  -1.93594299281217E-17
     -8.03283357058125E-16  -6.78814549510644E-16
      7.70373600000000E-02
      0.00000000000000E+00   0.00000000000000E+00   0.00000000000000E+00   0.00000000000000E+00  -4.34534071768001E-05
      0.00000000000000E+00  -4.34534071768001E-05  -7.82209458576621E-18   1.92593400000000E-01   1.92593400000000E-01
      0.00000000000000E+00   0.00000000000000E+00   4.34534071777358E-05   0.00000000000000E+00   4.34534071777358E-05
      3.24929409698324E-17   1.00000000000000E+00   1.00000000000000E+00   0.00000000000000E+00   0.00000000000000E+00
     -9.39869236183990E-37   9.39869236183990E-37   0.00000000000000E+00   6.61180241767698E-16   0.00000000000000E+00
      0.00000000000000E+00   0.00000000000000E+00   0.00000000000000E+00  -9.19094025703815E-16  -2.65155671985404E-17
     -9.45609592902355E-16  -6.64907131277482E-16
      1.22059594133333E-01
      0.00000000000000E+00   0.00000000000000E+00   0.00000000000000E+00   0.00000000000000E+00  -5.82466261276564E-05
      0.00000000000000E+00  -5.82466261276564E-05  -1.18942545256709E-17   3.05148985333333E-01   3.05148985333333E-01
      0.00000000000000E+00   0.00000000000000E+00   5.82466261286000E-05   0.00000000000000E+00   5.82466261286000E-05
      5.27706269040316E-17   1.00000000000000E+00   1.00000000000000E+00   0.00000000000000E+00   0.00000000000000E+00
     -8.63037162310796E-37   8.63037162310796E-37   0.00000000000000E+00   6.27471525287633E-16   0.00000000000000E+00
      0.00000000000000E+00   0.00000000000000E+00   0.00000000000000E+00   1.15896136420124E-14  -3.44108631604195E-17
      1.15552027788520E-14  -6.48550601300674E-16
      1.86591463057778E-01
      0.00000000000000E+00   0.00000000000000E+00   0.00000000000000E+00   0.00000000000000E+00  -7.08082616286442E-05
      0.00000000000000E+00  -7.08082616286442E-05  -1.67328136377401E-17   4.66478657644445E-01   4.66478657644445E-01
      0.00000000000000E+00   0.00000000000000E+00   7.08082616298262E-05   0.00000000000000E+00   7.08082616298262E-05
      8.48016798945997E-17   1.00000000000000E+00   1.00000000000000E+00   0.00000000000000E+00   0.00000000000000E+00
     -1.07366831796984E-36   1.07366831796984E-36   0.00000000000000E+00   5.86624852762627E-16   0.00000000000000E+00
      0.00000000000000E+00   0.00000000000000E+00   0.00000000000000E+00  -1.28697442804351E-15  -4.25697524267638E-17
     -1.32954418047028E-15  -6.36614112949006E-16
      2.77366292011496E-01
      0.00000000000000E+00   0.00000000000000E+00   0.00000000000000E+00   0.00000000000000E+00  -8.01662904042124E-05
      0.00000000000000E+00  -8.01662904042124E-05  -2.19397218900877E-17   6.93415730028741E-01   6.93415730028741E-01
      0.00000000000000E+00   0.00000000000000E+00   8.01662904059272E-05   0.00000000000000E+00   8.01662904059272E-05
      1.35337635116747E-16   1.00000000000000E+00   1.00000000000000E+00   0.00000000000000E+00   0.00000000000000E+00
     -1.00980601916631E-36   1.00980601916631E-36   0.00000000000000E+00   5.43811187983280E-16   0.00000000000000E+00
      0.00000000000000E+00   0.00000000000000E+00   0.00000000000000E+00  -1.52049676683632E-15  -5.03864640526304E-17
     -1.57088323088895E-15  -6.41853199664313E-16
      3.77366292011496E-01
      0.00000000000000E+00   0.00000000000000E+00   0.00000000000000E+00   0.00000000000000E+00  -8.71699775424364E-05
      0.00000000000000E+00  -8.71699775424364E-05  -2.67034073975480E-17   9.43415730028741E-01   9.43415730028741E-01
      0.00000000000000E+00   0.00000000000000E+00   8.71699775442696E-05   0.00000000000000E+00   8.71699775442696E-05
      1.90635344416434E-16   1.00000000000000E+00   1.00000000000000E+00   0.00000000000000E+00   0.00000000000000E+00
     -1.07595283770201E-36   1.07595283770201E-36   0.00000000000000E+00   5.05445575234383E-16   0.00000000000000E+00
      0.00000000000000E+00   0.00000000000000E+00   0.00000000000000E+00  -1.73864397116547E-15  -5.64202423392541E-17
     -1.79506421350472E-15  -6.57808030337613E-16
      4.77366292011496E-01
      0.00000000000000E+00   0.00000000000000E+00   0.00000000000000E+00   0.00000000000000E+00  -9.29797833693442E-05
      0.00000000000000E+00  -9.29797833693442E-05  -3.09438450126358E-17   1.19341573002874E+00   1.19341573002874E+00
      0.00000000000000E+00   0.00000000000000E+00   9.29797833713351E-05   0.00000000000000E+00   9.29797833713351E-05
      2.44005053907281E-16   1.00000000000000E+00   1.00000000000000E+00   0.00000000000000E+00   0.00000000000000E+00
     -9.85483524620347E-37   9.85483524620347E-37   0.00000000000000E+00   4.70528656792755E-16   0.00000000000000E+00
      0.00000000000000E+00   0.00000000000000E+00   0.00000000000000E+00  -1.92544675617715E-15  -6.11053316596581E-17
     -1.98655208783681E-15  -6.76841929618762E-16
      5.77366292011496E-01
      0.00000000000000E+00   0.00000000000000E+00   0.00000000000000E+00   0.00000000000000E+00  -9.81537481551614E-05
      0.00000000000000E+00  -9.81537481551614E-05  -3.48189372994802E-17   1.44341573002874E+00   1.44341573002874E+00
      0.00000000000000E+00   0.00000000000000E+00   9.81537481570259E-05   0.00000000000000E+00   9.81537481570259E-05
      2.95506203577556E-16   1.00000000000000E+00   1.00000000000000E+00   0.00000000000000E+00   0.00000000000000E+00
     -1.07188228135515E-36   1.07188228135515E-36   0.00000000000000E+00   4.37491004398861E-16   0.00000000000000E+00
      0.00000000000000E+00   0.00000000000000E+00   0.00000000000000E+00  -2.08200228714880E-15  -6.45702017285992E-17
     -2.14657248887740E-15  -6.97157445291032E-16
      6.77366292011496E-01
      0.00000000000000E+00   0.00000000000000E+00   0.00000000000000E+00   0.00000000000000E+00  -1.02920005767063E-04
      0.00000000000000E+00  -1.02920005767063E-04  -3.84132546229529E-17   1.69341573002874E+00   1.69341573002874E+00
      0.00000000000000E+00   0.00000000000000E+00   1.02920005769530E-04   0.00000000000000E+00   1.02920005769530E-04
      3.45727258697938E-16   1.00000000000000E+00   1.00000000000000E+00   0.00000000000000E+00   0.00000000000000E+00
     -9.22515383689567E-37   9.22515383689567E-37   0.00000000000000E+00   4.05632517614707E-16   0.00000000000000E+00
      0.00000000000000E+00   0.00000000000000E+00   0.00000000000000E+00  -2.22154003257811E-15  -6.73098601346449E-17
     -2.28884989271275E-15  -7.18254074205967E-16
      7.77366292011496E-01
      0.00000000000000E+00   0.00000000000000E+00   0.00000000000000E+00   0.00000000000000E+00  -1.07392824891671E-04
      0.00000000000000E+00  -1.07392824891671E-04  -4.17798854026925E-17   1.94341573002874E+00   1.94341573002874E+00
      0.00000000000000E+00   0.00000000000000E+00   1.07392824894106E-04   0.00000000000000E+00   1.07392824894106E-04
      3.94890382322209E-16   1.00000000000000E+00   1.00000000000000E+00   0.00000000000000E+00   0.00000000000000E+00
     -1.03868787489028E-36   1.03868787489028E-36   0.00000000000000E+00   3.74636157460118E-16   0.00000000000000E+00
      0.00000000000000E+00   0.00000000000000E+00   0.00000000000000E+00  -2.34183596545079E-15  -6.99094074104015E-17
     -2.41174537286119E-15  -7.39873637497033E-16
      8.77366292011496E-01
      0.00000000000000E+00   0.00000000000000E+00   0.00000000000000E+00   0.00000000000000E+00  -1.11646263895929E-04
      0.00000000000000E+00  -1.11646263895929E-04  -4.49593822420728E-17   2.19341573002874E+00   2.19341573002874E+00
      0.00000000000000E+00   0.00000000000000E+00   1.11646263898471E-04   0.00000000000000E+00   1.11646263898471E-04
      4.43074828889728E-16   1.00000000000000E+00   1.00000000000000E+00   0.00000000000000E+00   0.00000000000000E+00
     -1.10726137880133E-36   1.10726137880133E-36   0.00000000000000E+00   3.44280103113454E-16   0.00000000000000E+00
      0.00000000000000E+00   0.00000000000000E+00   0.00000000000000E+00  -2.45145333909587E-15  -7.20899364600638E-17
     -2.52354327555593E-15  -7.61792033256645E-16
      9.77366292011496E-01
      0.00000000000000E+00   0.00000000000000E+00   0.00000000000000E+00   0.00000000000000E+00  -1.15726395033535E-04
      0.00000000000000E+00  -1.15726395033535E-04  -4.79809394841799E-17   2.44341573002874E+00   2.44341573002874E+00
      0.00000000000000E+00   0.00000000000000E+00   1.15726395036236E-04   0.00000000000000E+00   1.15726395036236E-04
      4.90393359869954E-16   1.00000000000000E+00   1.00000000000000E+00   0.00000000000000E+00   0.00000000000000E+00
     -8.45430406431156E-37   8.45430406431156E-37   0.00000000000000E+00   3.14430096897793E-16   0.00000000000000E+00
      0.00000000000000E+00   0.00000000000000E+00   0.00000000000000E+00  -2.54673788529087E-15  -7.36514935349504E-17
     -2.62038937882582E-15  -7.83918450699971E-16
      1.00000000000000E+00
      0.00000000000000E+00   0.00000000000000E+00   0.00000000000000E+00   0.00000000000000E+00  -1.16628913188817E-04
      0.00000000000000E+00  -1.16628913188817E-04  -4.86451651139864E-17   2.50000000000000E+00   2.50000000000000E+00
      0.00000000000000E+00   0.00000000000000E+00   1.16628913191363E-04   0.00000000000000E+00   1.16628913191363E-04
      5.00996118332003E-16   1.00000000000000E+00   1.00000000000000E+00   0.00000000000000E+00   0.00000000000000E+00
     -8.78782785506415E-37   8.78782785506415E-37   0.00000000000000E+00   3.07737211821954E-16   0.00000000000000E+00
      0.00000000000000E+00   0.00000000000000E+00   0.00000000000000E+00  -2.56718190674614E-15  -7.39297223874998E-17
     -2.64111162913364E-15  -7.88954274558335E-16
}
