DF-ISE text

Info {
  version   = 1.0
  type      = xyplot
  datasets  = [
    "time"
    "source OuterVoltage" "source InnerVoltage" "source QuasiFermiPotential" "source DisplacementCurrent" "source eCurrent"
    "source hCurrent" "source TotalCurrent" "source Charge" "drain OuterVoltage" "drain InnerVoltage"
    "drain QuasiFermiPotential" "drain DisplacementCurrent" "drain eCurrent" "drain hCurrent" "drain TotalCurrent"
    "drain Charge" "gate OuterVoltage" "gate InnerVoltage" "gate QuasiFermiPotential" "gate DisplacementCurrent"
    "gate eCurrent" "gate hCurrent" "gate TotalCurrent" "gate Charge" "substrate OuterVoltage"
    "substrate InnerVoltage" "substrate QuasiFermiPotential" "substrate DisplacementCurrent" "substrate eCurrent" "substrate hCurrent"
    "substrate TotalCurrent" "substrate Charge" ]
  functions = [
    Time
    OuterVoltage InnerVoltage QuasiFermiPotential DisplacementCurrent eCurrent
    hCurrent TotalCurrent Charge OuterVoltage InnerVoltage
    QuasiFermiPotential DisplacementCurrent eCurrent hCurrent TotalCurrent
    Charge OuterVoltage InnerVoltage QuasiFermiPotential DisplacementCurrent
    eCurrent hCurrent TotalCurrent Charge OuterVoltage
    InnerVoltage QuasiFermiPotential DisplacementCurrent eCurrent hCurrent
    TotalCurrent Charge ]
}

Data {
      0.00000000000000E+00
      0.00000000000000E+00   0.00000000000000E+00   0.00000000000000E+00   0.00000000000000E+00  -1.91362950720737E-15
      0.00000000000000E+00  -1.91362950720737E-15  -1.54120265423547E-16   0.00000000000000E+00   0.00000000000000E+00
      0.00000000000000E+00   0.00000000000000E+00   1.11929928797166E-15   0.00000000000000E+00   1.11929928797166E-15
     -1.16822780117524E-16   2.00000000000000E+00   2.00000000000000E+00   0.00000000000000E+00   0.00000000000000E+00
     -8.75271571178112E-36   8.75271571178112E-36   0.00000000000000E+00   1.41413789597732E-15   0.00000000000000E+00
      0.00000000000000E+00   0.00000000000000E+00   0.00000000000000E+00   2.89081878014072E-17   3.11938888818473E-30
      2.89081878014103E-17  -1.11477062799359E-15
      1.00000000000000E-02
      0.00000000000000E+00   0.00000000000000E+00   0.00000000000000E+00   0.00000000000000E+00  -1.70094912194707E-05
      0.00000000000000E+00  -1.70094912194707E-05  -1.55486246614067E-16   2.50000000000000E-02   2.50000000000000E-02
      0.00000000000000E+00   0.00000000000000E+00   1.70094912202996E-05   0.00000000000000E+00   1.70094912202996E-05
     -1.11567746041022E-16   2.00000000000000E+00   2.00000000000000E+00   0.00000000000000E+00   0.00000000000000E+00
     -8.93848896616149E-36   8.93848896616149E-36   0.00000000000000E+00   1.40549152160985E-15   0.00000000000000E+00
      0.00000000000000E+00   0.00000000000000E+00   0.00000000000000E+00  -4.04532911693527E-16  -6.08511506708958E-18
     -4.10618026760616E-16  -1.11020095984063E-15
      2.46000000000000E-02
      0.00000000000000E+00   0.00000000000000E+00   0.00000000000000E+00   0.00000000000000E+00  -3.93415968240936E-05
      0.00000000000000E+00  -3.93415968240936E-05  -1.57440631197197E-16   6.15000000000000E-02   6.15000000000000E-02
      0.00000000000000E+00   0.00000000000000E+00   3.93415968256830E-05   0.00000000000000E+00   3.93415968256830E-05
     -1.03862550748289E-16   2.00000000000000E+00   2.00000000000000E+00   0.00000000000000E+00   0.00000000000000E+00
     -8.93178348852980E-36   8.93178348852980E-36   0.00000000000000E+00   1.39294887939213E-15   0.00000000000000E+00
      0.00000000000000E+00   0.00000000000000E+00   0.00000000000000E+00  -6.44660251817384E-16  -1.21141035640060E-17
     -6.56774355381390E-16  -1.10368317876444E-15
      4.59160000000000E-02
      0.00000000000000E+00   0.00000000000000E+00   0.00000000000000E+00   0.00000000000000E+00  -6.71097368376987E-05
      0.00000000000000E+00  -6.71097368376987E-05  -1.60198669221681E-16   1.14790000000000E-01   1.14790000000000E-01
      0.00000000000000E+00   0.00000000000000E+00   6.71097368399029E-05   0.00000000000000E+00   6.71097368399029E-05
     -9.25300109411463E-17   2.00000000000000E+00   2.00000000000000E+00   0.00000000000000E+00   0.00000000000000E+00
     -8.80806873110850E-36   8.80806873110850E-36   0.00000000000000E+00   1.37483993009317E-15   0.00000000000000E+00
      0.00000000000000E+00   0.00000000000000E+00   0.00000000000000E+00  -8.05276842734344E-16  -1.81208939312422E-17
     -8.23397736665586E-16  -1.09454900025905E-15
      7.70373600000000E-02
      0.00000000000000E+00   0.00000000000000E+00   0.00000000000000E+00   0.00000000000000E+00  -9.92694480841002E-05
      0.00000000000000E+00  -9.92694480841002E-05  -1.63999263824649E-16   1.92593400000000E-01   1.92593400000000E-01
      0.00000000000000E+00   0.00000000000000E+00   9.92694480836723E-05   0.00000000000000E+00   9.92694480836723E-05
     -7.57628012951063E-17   2.00000000000000E+00   2.00000000000000E+00   0.00000000000000E+00   0.00000000000000E+00
     -8.82107238142718E-36   8.82107238142718E-36   0.00000000000000E+00   1.34893569836391E-15   0.00000000000000E+00
      0.00000000000000E+00   0.00000000000000E+00   0.00000000000000E+00  -9.08875789246854E-16  -2.45417867182386E-17
     -9.33417575965092E-16  -1.08219608008682E-15
      1.21644642666667E-01
      0.00000000000000E+00   0.00000000000000E+00   0.00000000000000E+00   0.00000000000000E+00  -1.32657983515498E-04
      0.00000000000000E+00  -1.32657983515498E-04  -1.68944620363428E-16   3.04111606666667E-01   3.04111606666667E-01
      0.00000000000000E+00   0.00000000000000E+00   1.32657983515822E-04   0.00000000000000E+00   1.32657983515822E-04
     -5.11203940465713E-17   2.00000000000000E+00   2.00000000000000E+00   0.00000000000000E+00   0.00000000000000E+00
     -8.92395489386747E-36   8.92395489386747E-36   0.00000000000000E+00   1.31323997098721E-15   0.00000000000000E+00
      0.00000000000000E+00   0.00000000000000E+00   0.00000000000000E+00  -1.09074420614481E-15  -3.15455907009655E-17
     -1.12228979684577E-15  -1.06703603249326E-15
      1.84986984053333E-01
      0.00000000000000E+00   0.00000000000000E+00   0.00000000000000E+00   0.00000000000000E+00  -1.63298697597426E-04
      0.00000000000000E+00  -1.63298697597426E-04  -1.74955397532163E-16   4.62467460133333E-01   4.62467460133333E-01
      0.00000000000000E+00   0.00000000000000E+00   1.63298697601399E-04   0.00000000000000E+00   1.63298697601399E-04
     -1.43452845493290E-17   2.00000000000000E+00   2.00000000000000E+00   0.00000000000000E+00   0.00000000000000E+00
     -8.85596185051030E-36   8.85596185051030E-36   0.00000000000000E+00   1.26640854646537E-15   0.00000000000000E+00
      0.00000000000000E+00   0.00000000000000E+00   0.00000000000000E+00  -1.30421806151898E-15  -3.90490411267893E-17
     -1.34326710264577E-15  -1.05216082813116E-15
      2.74088544270578E-01
      0.00000000000000E+00   0.00000000000000E+00   0.00000000000000E+00   0.00000000000000E+00  -1.87867690573650E-04
      0.00000000000000E+00  -1.87867690573650E-04  -1.81689983776104E-16   6.85221360676444E-01   6.85221360676444E-01
      0.00000000000000E+00   0.00000000000000E+00   1.87867690578199E-04   0.00000000000000E+00   1.87867690578199E-04
      4.28422561367163E-17   2.00000000000000E+00   2.00000000000000E+00   0.00000000000000E+00   0.00000000000000E+00
     -9.04429242619751E-36   9.04429242619751E-36   0.00000000000000E+00   1.20991360302850E-15   0.00000000000000E+00
      0.00000000000000E+00   0.00000000000000E+00   0.00000000000000E+00  -1.55724560995594E-15  -4.67414468746340E-17
     -1.60398705683057E-15  -1.04779745847859E-15
      3.74088544270578E-01
      0.00000000000000E+00   0.00000000000000E+00   0.00000000000000E+00   0.00000000000000E+00  -2.04284724333029E-04
      0.00000000000000E+00  -2.04284724333029E-04  -1.87733957236088E-16   9.35221360676444E-01   9.35221360676444E-01
      0.00000000000000E+00   0.00000000000000E+00   2.04284724334851E-04   0.00000000000000E+00   2.04284724334851E-04
      1.14249568769530E-16   2.00000000000000E+00   2.00000000000000E+00   0.00000000000000E+00   0.00000000000000E+00
     -9.02146334945745E-36   9.02146334945745E-36   0.00000000000000E+00   1.15717048157710E-15   0.00000000000000E+00
      0.00000000000000E+00   0.00000000000000E+00   0.00000000000000E+00  -1.75740748823396E-15  -5.28790247656421E-17
     -1.81028651299960E-15  -1.06230485757101E-15
      4.74088544270578E-01
      0.00000000000000E+00   0.00000000000000E+00   0.00000000000000E+00   0.00000000000000E+00  -2.16526213850671E-04
      0.00000000000000E+00  -2.16526213850671E-04  -1.92981209487372E-16   1.18522136067644E+00   1.18522136067644E+00
      0.00000000000000E+00   0.00000000000000E+00   2.16526213844893E-04   0.00000000000000E+00   2.16526213844893E-04
      1.86554837237798E-16   2.00000000000000E+00   2.00000000000000E+00   0.00000000000000E+00   0.00000000000000E+00
     -8.86873462079038E-36   8.86873462079038E-36   0.00000000000000E+00   1.11003622313026E-15   0.00000000000000E+00
      0.00000000000000E+00   0.00000000000000E+00   0.00000000000000E+00  -1.96287469151487E-15  -5.75946345485063E-17
     -2.02046932606338E-15  -1.08412000461080E-15
      5.74088544270578E-01
      0.00000000000000E+00   0.00000000000000E+00   0.00000000000000E+00   0.00000000000000E+00  -2.26914156019776E-04
      0.00000000000000E+00  -2.26914156019776E-04  -1.97764401135126E-16   1.43522136067644E+00   1.43522136067644E+00
      0.00000000000000E+00   0.00000000000000E+00   2.26914156011189E-04   0.00000000000000E+00   2.26914156011189E-04
      2.58409280719771E-16   2.00000000000000E+00   2.00000000000000E+00   0.00000000000000E+00   0.00000000000000E+00
     -8.97779896957247E-36   8.97779896957247E-36   0.00000000000000E+00   1.06546733947286E-15   0.00000000000000E+00
      0.00000000000000E+00   0.00000000000000E+00   0.00000000000000E+00  -2.12782464287240E-15  -6.10001499884307E-17
     -2.18882479286083E-15  -1.10851724168006E-15
      6.74088544270578E-01
      0.00000000000000E+00   0.00000000000000E+00   0.00000000000000E+00   0.00000000000000E+00  -2.36243390171993E-04
      0.00000000000000E+00  -2.36243390171993E-04  -2.02226660936017E-16   1.68522136067644E+00   1.68522136067644E+00
      0.00000000000000E+00   0.00000000000000E+00   2.36243390179326E-04   0.00000000000000E+00   2.36243390179326E-04
      3.30401263397288E-16   2.00000000000000E+00   2.00000000000000E+00   0.00000000000000E+00   0.00000000000000E+00
     -8.82130423589299E-36   8.82130423589299E-36   0.00000000000000E+00   1.02216723226058E-15   0.00000000000000E+00
      0.00000000000000E+00   0.00000000000000E+00   0.00000000000000E+00  -2.26017639813976E-15  -6.40749191465791E-17
     -2.32425131728634E-15  -1.13464472256530E-15
      7.74088544270578E-01
      0.00000000000000E+00   0.00000000000000E+00   0.00000000000000E+00   0.00000000000000E+00  -2.44844068222119E-04
      0.00000000000000E+00  -2.44844068222119E-04  -2.06438223168759E-16   1.93522136067644E+00   1.93522136067644E+00
      0.00000000000000E+00   0.00000000000000E+00   2.44844068226803E-04   0.00000000000000E+00   2.44844068226803E-04
      4.02286864559054E-16   2.00000000000000E+00   2.00000000000000E+00   0.00000000000000E+00   0.00000000000000E+00
     -8.92431501044663E-36   8.92431501044663E-36   0.00000000000000E+00   9.79802656998605E-16   0.00000000000000E+00
      0.00000000000000E+00   0.00000000000000E+00   0.00000000000000E+00  -2.37548050550339E-15  -6.68065378485574E-17
     -2.44228704335195E-15  -1.16185548119804E-15
      8.74088544270578E-01
      0.00000000000000E+00   0.00000000000000E+00   0.00000000000000E+00   0.00000000000000E+00  -2.52897895949598E-04
      0.00000000000000E+00  -2.52897895949598E-04  -2.10443576707253E-16   2.18522136067644E+00   2.18522136067644E+00
      0.00000000000000E+00   0.00000000000000E+00   2.52897895958089E-04   0.00000000000000E+00   2.52897895958089E-04
      4.73831622003357E-16   2.00000000000000E+00   2.00000000000000E+00   0.00000000000000E+00   0.00000000000000E+00
     -8.85368821689304E-36   8.85368821689304E-36   0.00000000000000E+00   9.38251167893662E-16   0.00000000000000E+00
      0.00000000000000E+00   0.00000000000000E+00   0.00000000000000E+00  -2.50935413518786E-15  -6.88120744431381E-17
     -2.57816620963100E-15  -1.18974849842922E-15
      9.74088544270578E-01
      0.00000000000000E+00   0.00000000000000E+00   0.00000000000000E+00   0.00000000000000E+00  -2.60516044750517E-04
      0.00000000000000E+00  -2.60516044750517E-04  -2.14273160289686E-16   2.43522136067644E+00   2.43522136067644E+00
      0.00000000000000E+00   0.00000000000000E+00   2.60516044754888E-04   0.00000000000000E+00   2.60516044754888E-04
      5.44897916841170E-16   2.00000000000000E+00   2.00000000000000E+00   0.00000000000000E+00   0.00000000000000E+00
     -8.96481803206181E-36   8.96481803206181E-36   0.00000000000000E+00   8.97446562198999E-16   0.00000000000000E+00
      0.00000000000000E+00   0.00000000000000E+00   0.00000000000000E+00  -2.61354413525306E-15  -7.01989676470850E-17
     -2.68374310290015E-15  -1.21808956391701E-15
      1.00000000000000E+00
      0.00000000000000E+00   0.00000000000000E+00   0.00000000000000E+00   0.00000000000000E+00  -2.62428116943031E-04
      0.00000000000000E+00  -2.62428116943031E-04  -2.15239526637620E-16   2.50000000000000E+00   2.50000000000000E+00
      0.00000000000000E+00   0.00000000000000E+00   2.62428116935056E-04   0.00000000000000E+00   2.62428116935056E-04
      5.63220416439669E-16   2.00000000000000E+00   2.00000000000000E+00   0.00000000000000E+00   0.00000000000000E+00
     -8.93716382468250E-36   8.93716382468250E-36   0.00000000000000E+00   8.86994379554203E-16   0.00000000000000E+00
      0.00000000000000E+00   0.00000000000000E+00   0.00000000000000E+00  -2.60802468605892E-15  -7.04882567051962E-17
     -2.67851294276412E-15  -1.22548877975161E-15
}
