DF-ISE text

Info {
  version   = 1.0
  type      = xyplot
  datasets  = [
    "time"
    "source OuterVoltage" "source InnerVoltage" "source QuasiFermiPotential" "source DisplacementCurrent" "source eCurrent"
    "source hCurrent" "source TotalCurrent" "source Charge" "drain OuterVoltage" "drain InnerVoltage"
    "drain QuasiFermiPotential" "drain DisplacementCurrent" "drain eCurrent" "drain hCurrent" "drain TotalCurrent"
    "drain Charge" "gate OuterVoltage" "gate InnerVoltage" "gate QuasiFermiPotential" "gate DisplacementCurrent"
    "gate eCurrent" "gate hCurrent" "gate TotalCurrent" "gate Charge" "substrate OuterVoltage"
    "substrate InnerVoltage" "substrate QuasiFermiPotential" "substrate DisplacementCurrent" "substrate eCurrent" "substrate hCurrent"
    "substrate TotalCurrent" "substrate Charge" ]
  functions = [
    Time
    OuterVoltage InnerVoltage QuasiFermiPotential DisplacementCurrent eCurrent
    hCurrent TotalCurrent Charge OuterVoltage InnerVoltage
    QuasiFermiPotential DisplacementCurrent eCurrent hCurrent TotalCurrent
    Charge OuterVoltage InnerVoltage QuasiFermiPotential DisplacementCurrent
    eCurrent hCurrent TotalCurrent Charge OuterVoltage
    InnerVoltage QuasiFermiPotential DisplacementCurrent eCurrent hCurrent
    TotalCurrent Charge ]
}

Data {
      0.00000000000000E+00
      0.00000000000000E+00   0.00000000000000E+00   0.00000000000000E+00   0.00000000000000E+00  -9.83903283776146E-17
      0.00000000000000E+00  -9.83903283776146E-17   3.74165330560337E-18   0.00000000000000E+00   0.00000000000000E+00
      0.00000000000000E+00   0.00000000000000E+00   1.22078105846670E-17   0.00000000000000E+00   1.22078105846670E-17
      6.34262062056654E-18   1.00000000000000E+00   1.00000000000000E+00   0.00000000000000E+00   0.00000000000000E+00
     -1.25776013809704E-36   1.25776013809704E-36   0.00000000000000E+00   7.24548086579969E-16   0.00000000000000E+00
      0.00000000000000E+00   0.00000000000000E+00   0.00000000000000E+00   2.11015397355394E-18   5.78426008147379E-31
      2.11015397355452E-18  -7.14787358575842E-16
      1.00000000000000E-02
      0.00000000000000E+00   0.00000000000000E+00   0.00000000000000E+00   0.00000000000000E+00  -7.00270720758397E-06
      0.00000000000000E+00  -7.00270720758397E-06   2.82400526576194E-18   2.50000000000000E-02   2.50000000000000E-02
      0.00000000000000E+00   0.00000000000000E+00   7.00270720794458E-06   0.00000000000000E+00   7.00270720794458E-06
      9.97540940475545E-18   1.00000000000000E+00   1.00000000000000E+00   0.00000000000000E+00   0.00000000000000E+00
     -1.05297954474813E-36   1.05297954474813E-36   0.00000000000000E+00   7.16054723724907E-16   0.00000000000000E+00
      0.00000000000000E+00   0.00000000000000E+00   0.00000000000000E+00  -3.71841423374370E-16  -6.45390916448050E-18
     -3.78295332538851E-16  -7.09244007989535E-16
      2.46000000000000E-02
      0.00000000000000E+00   0.00000000000000E+00   0.00000000000000E+00   0.00000000000000E+00  -1.63806308958776E-05
      0.00000000000000E+00  -1.63806308958776E-05   1.48563292121403E-18   6.15000000000000E-02   6.15000000000000E-02
      0.00000000000000E+00   0.00000000000000E+00   1.63806308964543E-05   0.00000000000000E+00   1.63806308964543E-05
      1.53383694130623E-17   1.00000000000000E+00   1.00000000000000E+00   0.00000000000000E+00   0.00000000000000E+00
     -1.18805633617934E-36   1.18805633617934E-36   0.00000000000000E+00   7.03759119643267E-16   0.00000000000000E+00
      0.00000000000000E+00   0.00000000000000E+00   0.00000000000000E+00  -6.04444388541288E-16  -1.29350921755237E-17
     -6.17379480716812E-16  -7.01317343850041E-16
      4.59160000000000E-02
      0.00000000000000E+00   0.00000000000000E+00   0.00000000000000E+00   0.00000000000000E+00  -2.83054641699513E-05
      0.00000000000000E+00  -2.83054641699513E-05  -4.50859964637572E-19   1.14790000000000E-01   1.14790000000000E-01
      0.00000000000000E+00   0.00000000000000E+00   2.83054641707806E-05   0.00000000000000E+00   2.83054641707806E-05
      2.33049020371254E-17   1.00000000000000E+00   1.00000000000000E+00   0.00000000000000E+00   0.00000000000000E+00
     -1.25038448727485E-36   1.25038448727485E-36   0.00000000000000E+00   6.86089864468876E-16   0.00000000000000E+00
      0.00000000000000E+00   0.00000000000000E+00   0.00000000000000E+00  -7.47137258352631E-16  -1.95874059698397E-17
     -7.66724664322470E-16  -6.90184453298520E-16
      7.70373600000000E-02
      0.00000000000000E+00   0.00000000000000E+00   0.00000000000000E+00   0.00000000000000E+00  -4.23135297029477E-05
      0.00000000000000E+00  -4.23135297029477E-05  -3.18819783802285E-18   1.92593400000000E-01   1.92593400000000E-01
      0.00000000000000E+00   0.00000000000000E+00   4.23135297037601E-05   0.00000000000000E+00   4.23135297037601E-05
      3.52709511938002E-17   1.00000000000000E+00   1.00000000000000E+00   0.00000000000000E+00   0.00000000000000E+00
     -1.21381489894691E-36   1.21381489894691E-36   0.00000000000000E+00   6.61119818235835E-16   0.00000000000000E+00
      0.00000000000000E+00   0.00000000000000E+00   0.00000000000000E+00  -8.77884851807075E-16  -2.69200511055785E-17
     -9.04804902912654E-16  -6.75191492233119E-16
      1.22059594133333E-01
      0.00000000000000E+00   0.00000000000000E+00   0.00000000000000E+00   0.00000000000000E+00  -5.67026093262194E-05
      0.00000000000000E+00  -5.67026093262194E-05  -6.81227983445078E-18   3.05148985333333E-01   3.05148985333333E-01
      0.00000000000000E+00   0.00000000000000E+00   5.67026093272079E-05   0.00000000000000E+00   5.67026093272079E-05
      5.35111735371867E-17   1.00000000000000E+00   1.00000000000000E+00   0.00000000000000E+00   0.00000000000000E+00
     -1.23380481156390E-36   1.23380481156390E-36   0.00000000000000E+00   6.27574144458781E-16   0.00000000000000E+00
      0.00000000000000E+00   0.00000000000000E+00   0.00000000000000E+00  -1.03255839040362E-15  -3.50855678304182E-17
     -1.06764395823404E-15  -6.57368801256754E-16
      1.85991166602667E-01
      0.00000000000000E+00   0.00000000000000E+00   0.00000000000000E+00   0.00000000000000E+00  -6.87165179034194E-05
      0.00000000000000E+00  -6.87165179034194E-05  -1.10359768789373E-17   4.64977916506667E-01   4.64977916506667E-01
      0.00000000000000E+00   0.00000000000000E+00   6.87165179046595E-05   0.00000000000000E+00   6.87165179046595E-05
      8.24711212970501E-17   1.00000000000000E+00   1.00000000000000E+00   0.00000000000000E+00   0.00000000000000E+00
     -1.20057803914277E-36   1.20057803914277E-36   0.00000000000000E+00   5.87666562919198E-16   0.00000000000000E+00
      0.00000000000000E+00   0.00000000000000E+00   0.00000000000000E+00  -1.23363936580418E-15  -4.34469706252130E-17
     -1.27708633642939E-15  -6.43841539863924E-16
      2.75921578542862E-01
      0.00000000000000E+00   0.00000000000000E+00   0.00000000000000E+00   0.00000000000000E+00  -7.75309020071981E-05
      0.00000000000000E+00  -7.75309020071981E-05  -1.55159450886128E-17   6.89803946357156E-01   6.89803946357156E-01
      0.00000000000000E+00   0.00000000000000E+00   7.75309020088693E-05   0.00000000000000E+00   7.75309020088693E-05
      1.29128059284372E-16   1.00000000000000E+00   1.00000000000000E+00   0.00000000000000E+00   0.00000000000000E+00
     -1.21800636007275E-36   1.21800636007275E-36   0.00000000000000E+00   5.46422943916570E-16   0.00000000000000E+00
      0.00000000000000E+00   0.00000000000000E+00   0.00000000000000E+00  -1.46280799351014E-15  -5.13752152187299E-17
     -1.51418320872887E-15  -6.47406288018509E-16
      3.75921578542862E-01
      0.00000000000000E+00   0.00000000000000E+00   0.00000000000000E+00   0.00000000000000E+00  -8.41308320583060E-05
      0.00000000000000E+00  -8.41308320583060E-05  -1.96345470823794E-17   9.39803946357156E-01   9.39803946357156E-01
      0.00000000000000E+00   0.00000000000000E+00   8.41308320600002E-05   0.00000000000000E+00   8.41308320600002E-05
      1.81025985201262E-16   1.00000000000000E+00   1.00000000000000E+00   0.00000000000000E+00   0.00000000000000E+00
     -1.08217038994214E-36   1.08217038994214E-36   0.00000000000000E+00   5.09103271252490E-16   0.00000000000000E+00
      0.00000000000000E+00   0.00000000000000E+00   0.00000000000000E+00  -1.67792892401655E-15  -5.75790459582679E-17
     -1.73550796997482E-15  -6.61572679777075E-16
      4.75921578542862E-01
      0.00000000000000E+00   0.00000000000000E+00   0.00000000000000E+00   0.00000000000000E+00  -8.95632295034721E-05
      0.00000000000000E+00  -8.95632295034721E-05  -2.32905253589409E-17   1.18980394635716E+00   1.18980394635716E+00
      0.00000000000000E+00   0.00000000000000E+00   8.95632295054793E-05   0.00000000000000E+00   8.95632295054793E-05
      2.31456077186991E-16   1.00000000000000E+00   1.00000000000000E+00   0.00000000000000E+00   0.00000000000000E+00
     -1.05439848351419E-36   1.05439848351419E-36   0.00000000000000E+00   4.75103396360570E-16   0.00000000000000E+00
      0.00000000000000E+00   0.00000000000000E+00   0.00000000000000E+00  -1.86442932496890E-15  -6.22448548325050E-17
     -1.92667417980140E-15  -6.79071767689224E-16
      5.75921578542862E-01
      0.00000000000000E+00   0.00000000000000E+00   0.00000000000000E+00   0.00000000000000E+00  -9.43782044263589E-05
      0.00000000000000E+00  -9.43782044263589E-05  -2.66223479676860E-17   1.43980394635716E+00   1.43980394635716E+00
      0.00000000000000E+00   0.00000000000000E+00   9.43782044284111E-05   0.00000000000000E+00   9.43782044284111E-05
      2.80500262890573E-16   1.00000000000000E+00   1.00000000000000E+00   0.00000000000000E+00   0.00000000000000E+00
     -1.20663315688381E-36   1.20663315688381E-36   0.00000000000000E+00   4.42884773500168E-16   0.00000000000000E+00
      0.00000000000000E+00   0.00000000000000E+00   0.00000000000000E+00  -2.02463060785997E-15  -6.59345828347206E-17
     -2.09056519069469E-15  -6.98129146352051E-16
      6.75921578542862E-01
      0.00000000000000E+00   0.00000000000000E+00   0.00000000000000E+00   0.00000000000000E+00  -9.88056727321414E-05
      0.00000000000000E+00  -9.88056727321414E-05  -2.97056196010584E-17   1.68980394635716E+00   1.68980394635716E+00
      0.00000000000000E+00   0.00000000000000E+00   9.88056727343188E-05   0.00000000000000E+00   9.88056727343188E-05
      3.28598549284666E-16   1.00000000000000E+00   1.00000000000000E+00   0.00000000000000E+00   0.00000000000000E+00
     -9.24099460518295E-37   9.24099460518295E-37   0.00000000000000E+00   4.11725436485766E-16   0.00000000000000E+00
      0.00000000000000E+00   0.00000000000000E+00   0.00000000000000E+00  -2.16645912821130E-15  -6.86590378928356E-17
     -2.23511816610414E-15  -7.18112400501368E-16
      7.75921578542862E-01
      0.00000000000000E+00   0.00000000000000E+00   0.00000000000000E+00   0.00000000000000E+00  -1.02956989975861E-04
      0.00000000000000E+00  -1.02956989975861E-04  -3.25865269383774E-17   1.93980394635716E+00   1.93980394635716E+00
      0.00000000000000E+00   0.00000000000000E+00   1.02956989978494E-04   0.00000000000000E+00   1.02956989978494E-04
      3.75915980690818E-16   1.00000000000000E+00   1.00000000000000E+00   0.00000000000000E+00   0.00000000000000E+00
     -1.04106213448857E-36   1.04106213448857E-36   0.00000000000000E+00   3.81329090488569E-16   0.00000000000000E+00
      0.00000000000000E+00   0.00000000000000E+00   0.00000000000000E+00  -2.29063998839780E-15  -7.11305309381252E-17
     -2.36177051933593E-15  -7.38761052339895E-16
      8.75921578542862E-01
      0.00000000000000E+00   0.00000000000000E+00   0.00000000000000E+00   0.00000000000000E+00  -1.06897457098199E-04
      0.00000000000000E+00  -1.06897457098199E-04  -3.52981408424184E-17   2.18980394635716E+00   2.18980394635716E+00
      0.00000000000000E+00   0.00000000000000E+00   1.06897457100872E-04   0.00000000000000E+00   1.06897457100872E-04
      4.22503538352598E-16   1.00000000000000E+00   1.00000000000000E+00   0.00000000000000E+00   0.00000000000000E+00
     -8.54029861299777E-37   8.54029861299777E-37   0.00000000000000E+00   3.51531654898244E-16   0.00000000000000E+00
      0.00000000000000E+00   0.00000000000000E+00   0.00000000000000E+00  -2.39606446530214E-15  -7.34248653115196E-17
     -2.46948933061366E-15  -7.59907126368938E-16
      9.75921578542862E-01
      0.00000000000000E+00   0.00000000000000E+00   0.00000000000000E+00   0.00000000000000E+00  -1.10675478607086E-04
      0.00000000000000E+00  -1.10675478607086E-04  -3.78679966498394E-17   2.43980394635716E+00   2.43980394635716E+00
      0.00000000000000E+00   0.00000000000000E+00   1.10675478609806E-04   0.00000000000000E+00   1.10675478609806E-04
      4.68407714075461E-16   1.00000000000000E+00   1.00000000000000E+00   0.00000000000000E+00   0.00000000000000E+00
     -1.17567591762997E-36   1.17567591762997E-36   0.00000000000000E+00   3.22174019689623E-16   0.00000000000000E+00
      0.00000000000000E+00   0.00000000000000E+00   0.00000000000000E+00  -2.50071379272593E-15  -7.52109944029169E-17
     -2.57592478712885E-15  -7.81366408661283E-16
      1.00000000000000E+00
      0.00000000000000E+00   0.00000000000000E+00   0.00000000000000E+00   0.00000000000000E+00  -1.11564227508568E-04
      0.00000000000000E+00  -1.11564227508568E-04  -3.84678580880645E-17   2.50000000000000E+00   2.50000000000000E+00
      0.00000000000000E+00   0.00000000000000E+00   1.11564227511391E-04   0.00000000000000E+00   1.11564227511391E-04
      4.79371678200775E-16   1.00000000000000E+00   1.00000000000000E+00   0.00000000000000E+00   0.00000000000000E+00
     -1.11164629800186E-36   1.11164629800186E-36   0.00000000000000E+00   3.15163260505793E-16   0.00000000000000E+00
      0.00000000000000E+00   0.00000000000000E+00   0.00000000000000E+00  -2.52394181577207E-15  -7.55556008587355E-17
     -2.59949741663080E-15  -7.86576711488468E-16
}
