DF-ISE text

Info {
  version   = 1.0
  type      = xyplot
  datasets  = [
    "time"
    "source OuterVoltage" "source InnerVoltage" "source QuasiFermiPotential" "source DisplacementCurrent" "source eCurrent"
    "source hCurrent" "source TotalCurrent" "source Charge" "drain OuterVoltage" "drain InnerVoltage"
    "drain QuasiFermiPotential" "drain DisplacementCurrent" "drain eCurrent" "drain hCurrent" "drain TotalCurrent"
    "drain Charge" "gate OuterVoltage" "gate InnerVoltage" "gate QuasiFermiPotential" "gate DisplacementCurrent"
    "gate eCurrent" "gate hCurrent" "gate TotalCurrent" "gate Charge" "substrate OuterVoltage"
    "substrate InnerVoltage" "substrate QuasiFermiPotential" "substrate DisplacementCurrent" "substrate eCurrent" "substrate hCurrent"
    "substrate TotalCurrent" "substrate Charge" ]
  functions = [
    Time
    OuterVoltage InnerVoltage QuasiFermiPotential DisplacementCurrent eCurrent
    hCurrent TotalCurrent Charge OuterVoltage InnerVoltage
    QuasiFermiPotential DisplacementCurrent eCurrent hCurrent TotalCurrent
    Charge OuterVoltage InnerVoltage QuasiFermiPotential DisplacementCurrent
    eCurrent hCurrent TotalCurrent Charge OuterVoltage
    InnerVoltage QuasiFermiPotential DisplacementCurrent eCurrent hCurrent
    TotalCurrent Charge ]
}

Data {
      0.00000000000000E+00
      0.00000000000000E+00   0.00000000000000E+00   0.00000000000000E+00   0.00000000000000E+00  -6.16197998334702E-19
      0.00000000000000E+00  -6.16197998334702E-19   6.29364312765200E-17   0.00000000000000E+00   0.00000000000000E+00
      0.00000000000000E+00   0.00000000000000E+00   3.66265902346101E-18   0.00000000000000E+00   3.66265902346101E-18
      6.42000040105087E-17   0.00000000000000E+00   0.00000000000000E+00   0.00000000000000E+00   0.00000000000000E+00
     -7.67026643939015E-36   7.67026643939015E-36   0.00000000000000E+00   8.40077938637926E-17   0.00000000000000E+00
      0.00000000000000E+00   0.00000000000000E+00   0.00000000000000E+00  -1.86816341761743E-20  -2.55887071818565E-31
     -1.86816341764301E-20  -2.07606616063214E-16
      1.00000000000000E-02
      0.00000000000000E+00   0.00000000000000E+00   0.00000000000000E+00   0.00000000000000E+00  -7.75234102627412E-07
      0.00000000000000E+00  -7.75234102627412E-07   6.21699309029486E-17   2.50000000000000E-02   2.50000000000000E-02
      0.00000000000000E+00   0.00000000000000E+00   7.75234102985527E-07   0.00000000000000E+00   7.75234102985527E-07
      6.78150130539410E-17   0.00000000000000E+00   0.00000000000000E+00   0.00000000000000E+00   0.00000000000000E+00
     -7.73852756360179E-36   7.73852756360179E-36   0.00000000000000E+00   7.78588348240866E-17   0.00000000000000E+00
      0.00000000000000E+00   0.00000000000000E+00   0.00000000000000E+00  -3.46119729843036E-16  -7.40526657392036E-18
     -3.53524996416956E-16  -2.04823020078279E-16
      2.46000000000000E-02
      0.00000000000000E+00   0.00000000000000E+00   0.00000000000000E+00   0.00000000000000E+00  -1.53238068317443E-06
      0.00000000000000E+00  -1.53238068317443E-06   6.11671983296108E-17   6.15000000000000E-02   6.15000000000000E-02
      0.00000000000000E+00   0.00000000000000E+00   1.53238068375388E-06   0.00000000000000E+00   1.53238068375388E-06
      7.33464899028079E-17   0.00000000000000E+00   0.00000000000000E+00   0.00000000000000E+00   0.00000000000000E+00
     -7.40936843732851E-36   7.40936843732851E-36   0.00000000000000E+00   6.98638417946163E-17   0.00000000000000E+00
      0.00000000000000E+00   0.00000000000000E+00   0.00000000000000E+00  -5.45174667586245E-16  -1.38839868808224E-17
     -5.59058654467067E-16  -2.02164298179730E-16
      4.59160000000000E-02
      0.00000000000000E+00   0.00000000000000E+00   0.00000000000000E+00   0.00000000000000E+00  -2.12190677612656E-06
      0.00000000000000E+00  -2.12190677612656E-06   5.99577771666489E-17   1.14790000000000E-01   1.14790000000000E-01
      0.00000000000000E+00   0.00000000000000E+00   2.12190677680496E-06   0.00000000000000E+00   2.12190677680496E-06
      8.20559619350454E-17   0.00000000000000E+00   0.00000000000000E+00   0.00000000000000E+00   0.00000000000000E+00
     -7.68498952570815E-36   7.68498952570815E-36   0.00000000000000E+00   6.04387666372320E-17   0.00000000000000E+00
      0.00000000000000E+00   0.00000000000000E+00   0.00000000000000E+00  -6.54647042876612E-16  -1.96760133512771E-17
     -6.74323056227889E-16  -2.01568175251886E-16
      7.67531466666667E-02
      0.00000000000000E+00   0.00000000000000E+00   0.00000000000000E+00   0.00000000000000E+00  -2.61738700871562E-06
      0.00000000000000E+00  -2.61738700871562E-06   5.84983658455643E-17   1.91882866666667E-01   1.91882866666667E-01
      0.00000000000000E+00   0.00000000000000E+00   2.61738700946103E-06   0.00000000000000E+00   2.61738700946103E-06
      9.55282359718738E-17   0.00000000000000E+00   0.00000000000000E+00   0.00000000000000E+00   0.00000000000000E+00
     -7.69092123759918E-36   7.69092123759918E-36   0.00000000000000E+00   4.97284587269440E-17   0.00000000000000E+00
      0.00000000000000E+00   0.00000000000000E+00   0.00000000000000E+00   8.15503146763998E-14  -2.54562321689641E-17
      8.15248584442308E-14  -2.05161046710402E-16
      1.20953056888889E-01
      0.00000000000000E+00   0.00000000000000E+00   0.00000000000000E+00   0.00000000000000E+00  -3.22557694283696E-06
      0.00000000000000E+00  -3.22557694283696E-06   5.65756494661999E-17   3.02382642222222E-01   3.02382642222222E-01
      0.00000000000000E+00   0.00000000000000E+00   3.22557694373617E-06   0.00000000000000E+00   3.22557694373617E-06
      1.14601972214015E-16   0.00000000000000E+00   0.00000000000000E+00   0.00000000000000E+00   0.00000000000000E+00
     -7.60829950724504E-36   7.60829950724504E-36   0.00000000000000E+00   3.60924815680197E-17   0.00000000000000E+00
      0.00000000000000E+00   0.00000000000000E+00   0.00000000000000E+00   5.79794892899321E-16  -3.17258711481031E-17
      5.48069021751217E-16  -2.12584884654709E-16
      1.83716929404444E-01
      0.00000000000000E+00   0.00000000000000E+00   0.00000000000000E+00   0.00000000000000E+00  -4.05918627460009E-06
      0.00000000000000E+00  -4.05918627460009E-06   5.39966402450782E-17   4.59292323511111E-01   4.59292323511111E-01
      0.00000000000000E+00   0.00000000000000E+00   4.05918627571607E-06   0.00000000000000E+00   4.05918627571607E-06
      1.40024122811551E-16   0.00000000000000E+00   0.00000000000000E+00   0.00000000000000E+00   0.00000000000000E+00
     -7.70795238982464E-36   7.70795238982464E-36   0.00000000000000E+00   1.77499753548494E-17   0.00000000000000E+00
      0.00000000000000E+00   0.00000000000000E+00   0.00000000000000E+00  -1.04611685727176E-15  -3.86235147173927E-17
     -1.08474037198915E-15  -2.23434094767367E-16
      2.72004776742993E-01
      0.00000000000000E+00   0.00000000000000E+00   0.00000000000000E+00   0.00000000000000E+00  -5.23650221423362E-06
      0.00000000000000E+00  -5.23650221423362E-06   5.05864745863084E-17   6.80011941857481E-01   6.80011941857481E-01
      0.00000000000000E+00   0.00000000000000E+00   5.23650221556212E-06   0.00000000000000E+00   5.23650221556212E-06
      1.73753918531629E-16   0.00000000000000E+00   0.00000000000000E+00   0.00000000000000E+00   0.00000000000000E+00
     -7.78059067205338E-36   7.78059067205338E-36   0.00000000000000E+00  -7.05300342651830E-18   0.00000000000000E+00
      0.00000000000000E+00   0.00000000000000E+00   0.00000000000000E+00  -1.26397850968278E-15  -4.60678957764331E-17
     -1.31004640545921E-15  -2.38808066067875E-16
      3.72004776742993E-01
      0.00000000000000E+00   0.00000000000000E+00   0.00000000000000E+00   0.00000000000000E+00  -6.59621196165018E-06
      0.00000000000000E+00  -6.59621196165018E-06   4.69947032044594E-17   9.30011941857481E-01   9.30011941857481E-01
      0.00000000000000E+00   0.00000000000000E+00   6.59621196318944E-06   0.00000000000000E+00   6.59621196318944E-06
      2.10125481984331E-16   0.00000000000000E+00   0.00000000000000E+00   0.00000000000000E+00   0.00000000000000E+00
     -7.75900682853153E-36   7.75900682853153E-36   0.00000000000000E+00  -3.39677176118427E-17   0.00000000000000E+00
      0.00000000000000E+00   0.00000000000000E+00   0.00000000000000E+00  -1.48390771521644E-15  -5.25616349578676E-17
     -1.53646935017431E-15  -2.56226277024628E-16
      4.72004776742993E-01
      0.00000000000000E+00   0.00000000000000E+00   0.00000000000000E+00   0.00000000000000E+00  -7.95669917640624E-06
      0.00000000000000E+00  -7.95669917640624E-06   4.37064151656388E-17   1.18001194185748E+00   1.18001194185748E+00
      0.00000000000000E+00   0.00000000000000E+00   7.95669917816959E-06   0.00000000000000E+00   7.95669917816959E-06
      2.45849601681069E-16   0.00000000000000E+00   0.00000000000000E+00   0.00000000000000E+00   0.00000000000000E+00
     -7.67746651002654E-36   7.67746651002654E-36   0.00000000000000E+00  -5.87234788820981E-17   0.00000000000000E+00
      0.00000000000000E+00   0.00000000000000E+00   0.00000000000000E+00  -1.67457255315458E-15  -5.75749182691809E-17
     -1.73214747142376E-15  -2.73445576671031E-16
      5.72004776742993E-01
      0.00000000000000E+00   0.00000000000000E+00   0.00000000000000E+00   0.00000000000000E+00  -9.29215086503934E-06
      0.00000000000000E+00  -9.29215086503934E-06   4.07173763946252E-17   1.43001194185748E+00   1.43001194185748E+00
      0.00000000000000E+00   0.00000000000000E+00   9.29215086697066E-06   0.00000000000000E+00   9.29215086697066E-06
      2.80657138684163E-16   0.00000000000000E+00   0.00000000000000E+00   0.00000000000000E+00   0.00000000000000E+00
     -7.60804351497597E-36   7.60804351497597E-36   0.00000000000000E+00  -8.10320945862064E-17   0.00000000000000E+00
      0.00000000000000E+00   0.00000000000000E+00   0.00000000000000E+00  -1.83971738029014E-15  -6.17304012219469E-17
     -1.90144778151209E-15  -2.90309612224194E-16
      6.72004776742993E-01
      0.00000000000000E+00   0.00000000000000E+00   0.00000000000000E+00   0.00000000000000E+00  -1.06084759456597E-05
      0.00000000000000E+00  -1.06084759456597E-05   3.79729909516484E-17   1.68001194185748E+00   1.68001194185748E+00
      0.00000000000000E+00   0.00000000000000E+00   1.06084759476897E-05   0.00000000000000E+00   1.06084759476897E-05
      3.13958993651707E-16   0.00000000000000E+00   0.00000000000000E+00   0.00000000000000E+00   0.00000000000000E+00
     -7.67582343631268E-36   7.67582343631268E-36   0.00000000000000E+00  -1.01724020858141E-16   0.00000000000000E+00
      0.00000000000000E+00   0.00000000000000E+00   0.00000000000000E+00  -1.98320371954885E-15  -6.50334834180326E-17
     -2.04823720296688E-15  -3.06870912865769E-16
      7.72004776742993E-01
      0.00000000000000E+00   0.00000000000000E+00   0.00000000000000E+00   0.00000000000000E+00  -1.19034993907867E-05
      0.00000000000000E+00  -1.19034993907867E-05   3.54384251436658E-17   1.93001194185748E+00   1.93001194185748E+00
      0.00000000000000E+00   0.00000000000000E+00   1.19034993929468E-05   0.00000000000000E+00   1.19034993929468E-05
      3.45951229652575E-16   0.00000000000000E+00   0.00000000000000E+00   0.00000000000000E+00   0.00000000000000E+00
     -7.80267505737121E-36   7.80267505737121E-36   0.00000000000000E+00  -1.21115705664170E-16   0.00000000000000E+00
      0.00000000000000E+00   0.00000000000000E+00   0.00000000000000E+00  -2.10881087911022E-15  -6.77116765275911E-17
     -2.17652255563781E-15  -3.23144829179347E-16
      8.72004776742992E-01
      0.00000000000000E+00   0.00000000000000E+00   0.00000000000000E+00   0.00000000000000E+00  -1.31842692242472E-05
      0.00000000000000E+00  -1.31842692242472E-05   3.30727534419433E-17   2.18001194185748E+00   2.18001194185748E+00
      0.00000000000000E+00   0.00000000000000E+00   1.31842692265490E-05   0.00000000000000E+00   1.31842692265490E-05
      3.76975359823723E-16   0.00000000000000E+00   0.00000000000000E+00   0.00000000000000E+00   0.00000000000000E+00
     -7.83160898707508E-36   7.83160898707508E-36   0.00000000000000E+00  -1.39588098130326E-16   0.00000000000000E+00
      0.00000000000000E+00   0.00000000000000E+00   0.00000000000000E+00  -2.22006884479540E-15  -7.02447763677447E-17
     -2.29031362116314E-15  -3.39205905241663E-16
      9.72004776742992E-01
      0.00000000000000E+00   0.00000000000000E+00   0.00000000000000E+00   0.00000000000000E+00  -1.44658338109428E-05
      0.00000000000000E+00  -1.44658338109428E-05   3.08313036416105E-17   2.43001194185748E+00   2.43001194185748E+00
      0.00000000000000E+00   0.00000000000000E+00   1.44658338133129E-05   0.00000000000000E+00   1.44658338133129E-05
      4.07495919199658E-16   0.00000000000000E+00   0.00000000000000E+00   0.00000000000000E+00   0.00000000000000E+00
     -7.64266959031517E-36   7.64266959031517E-36   0.00000000000000E+00  -1.57591668578987E-16   0.00000000000000E+00
      0.00000000000000E+00   0.00000000000000E+00   0.00000000000000E+00  -2.32012302496868E-15  -7.26637352404422E-17
     -2.39278676020912E-15  -3.55202246761017E-16
      1.00000000000000E+00
      0.00000000000000E+00   0.00000000000000E+00   0.00000000000000E+00   0.00000000000000E+00  -1.48261942773969E-05
      0.00000000000000E+00  -1.48261942773969E-05   3.02218147909216E-17   2.50000000000000E+00   2.50000000000000E+00
      0.00000000000000E+00   0.00000000000000E+00   1.48261942798422E-05   0.00000000000000E+00   1.48261942798422E-05
      4.15991365011182E-16   0.00000000000000E+00   0.00000000000000E+00   0.00000000000000E+00   0.00000000000000E+00
     -7.80507962489667E-36   7.80507962489667E-36   0.00000000000000E+00  -1.62585517410297E-16   0.00000000000000E+00
      0.00000000000000E+00   0.00000000000000E+00   0.00000000000000E+00  -2.34637330662216E-15  -7.32903631476789E-17
     -2.41966366976984E-15  -3.59682000054670E-16
}
