DF-ISE text

Info {
  version   = 1.0
  type      = xyplot
  datasets  = [
    "time"
    "source OuterVoltage" "source InnerVoltage" "source QuasiFermiPotential" "source DisplacementCurrent" "source eCurrent"
    "source hCurrent" "source TotalCurrent" "source Charge" "drain OuterVoltage" "drain InnerVoltage"
    "drain QuasiFermiPotential" "drain DisplacementCurrent" "drain eCurrent" "drain hCurrent" "drain TotalCurrent"
    "drain Charge" "gate OuterVoltage" "gate InnerVoltage" "gate QuasiFermiPotential" "gate DisplacementCurrent"
    "gate eCurrent" "gate hCurrent" "gate TotalCurrent" "gate Charge" "substrate OuterVoltage"
    "substrate InnerVoltage" "substrate QuasiFermiPotential" "substrate DisplacementCurrent" "substrate eCurrent" "substrate hCurrent"
    "substrate TotalCurrent" "substrate Charge" ]
  functions = [
    Time
    OuterVoltage InnerVoltage QuasiFermiPotential DisplacementCurrent eCurrent
    hCurrent TotalCurrent Charge OuterVoltage InnerVoltage
    QuasiFermiPotential DisplacementCurrent eCurrent hCurrent TotalCurrent
    Charge OuterVoltage InnerVoltage QuasiFermiPotential DisplacementCurrent
    eCurrent hCurrent TotalCurrent Charge OuterVoltage
    InnerVoltage QuasiFermiPotential DisplacementCurrent eCurrent hCurrent
    TotalCurrent Charge ]
}

Data {
      0.00000000000000E+00
      0.00000000000000E+00   0.00000000000000E+00   0.00000000000000E+00   0.00000000000000E+00   2.31796042567385E-17
      0.00000000000000E+00   2.31796042567385E-17   6.81150577377622E-17   0.00000000000000E+00   0.00000000000000E+00
      0.00000000000000E+00   0.00000000000000E+00   8.22610015383669E-18   0.00000000000000E+00   8.22610015383669E-18
      6.96547566677015E-17   0.00000000000000E+00   0.00000000000000E+00   0.00000000000000E+00   0.00000000000000E+00
     -5.29353799891381E-37   5.29353799891381E-37   0.00000000000000E+00   7.91110509267210E-17   0.00000000000000E+00
      0.00000000000000E+00   0.00000000000000E+00   0.00000000000000E+00   7.02141689525568E-20   1.08204869622798E-30
      7.02141689536389E-20  -2.15205785352085E-16
      1.00000000000000E-02
      0.00000000000000E+00   0.00000000000000E+00   0.00000000000000E+00   0.00000000000000E+00  -1.10817573252471E-06
      0.00000000000000E+00  -1.10817573252471E-06   6.71231867895454E-17   2.50000000000000E-02   2.50000000000000E-02
      0.00000000000000E+00   0.00000000000000E+00   1.10817573298469E-06   0.00000000000000E+00   1.10817573298469E-06
      7.41551776986462E-17   0.00000000000000E+00   0.00000000000000E+00   0.00000000000000E+00   0.00000000000000E+00
     -3.40055882244678E-37   3.40055882244678E-37   0.00000000000000E+00   7.26608029864020E-17   0.00000000000000E+00
      0.00000000000000E+00   0.00000000000000E+00   0.00000000000000E+00  -3.77947311971612E-16  -6.31014416511378E-18
     -3.84257456136726E-16  -2.12579499620337E-16
      2.46000000000000E-02
      0.00000000000000E+00   0.00000000000000E+00   0.00000000000000E+00   0.00000000000000E+00  -2.18385945600048E-06
      0.00000000000000E+00  -2.18385945600048E-06   6.58386947339698E-17   6.15000000000000E-02   6.15000000000000E-02
      0.00000000000000E+00   0.00000000000000E+00   2.18385945656453E-06   0.00000000000000E+00   2.18385945656453E-06
      8.10002946852125E-17   0.00000000000000E+00   0.00000000000000E+00   0.00000000000000E+00   0.00000000000000E+00
     -2.85395223352109E-37   2.85395223352109E-37   0.00000000000000E+00   6.41330997781628E-17   0.00000000000000E+00
      0.00000000000000E+00   0.00000000000000E+00   0.00000000000000E+00  -5.96623614094317E-16  -1.22888175976014E-17
     -6.08912431691918E-16  -2.10082786563139E-16
      4.59160000000000E-02
      0.00000000000000E+00   0.00000000000000E+00   0.00000000000000E+00   0.00000000000000E+00  -3.05249714966478E-06
      0.00000000000000E+00  -3.05249714966478E-06   6.42816351510539E-17   1.14790000000000E-01   1.14790000000000E-01
      0.00000000000000E+00   0.00000000000000E+00   3.05249715041175E-06   0.00000000000000E+00   3.05249715041175E-06
      9.17647364111217E-17   0.00000000000000E+00   0.00000000000000E+00   0.00000000000000E+00   0.00000000000000E+00
     -4.03510697687120E-37   4.03510697687120E-37   0.00000000000000E+00   5.37069787844755E-17   0.00000000000000E+00
      0.00000000000000E+00   0.00000000000000E+00   0.00000000000000E+00  -7.03859108421106E-16  -1.78711047881888E-17
     -7.21730213209295E-16  -2.09576215438972E-16
      7.67531466666667E-02
      0.00000000000000E+00   0.00000000000000E+00   0.00000000000000E+00   0.00000000000000E+00  -3.84627710626258E-06
      0.00000000000000E+00  -3.84627710626258E-06   6.23760950855377E-17   1.91882866666667E-01   1.91882866666667E-01
      0.00000000000000E+00   0.00000000000000E+00   3.84627710712579E-06   0.00000000000000E+00   3.84627710712579E-06
      1.08803222113442E-16   0.00000000000000E+00   0.00000000000000E+00   0.00000000000000E+00   0.00000000000000E+00
     -3.26886608061607E-37   3.26886608061607E-37   0.00000000000000E+00   4.13444737859626E-17   0.00000000000000E+00
      0.00000000000000E+00   0.00000000000000E+00   0.00000000000000E+00  -8.08571478607818E-16  -2.35083701723249E-17
     -8.32079848780143E-16  -2.13443833798289E-16
      1.20541894933333E-01
      0.00000000000000E+00   0.00000000000000E+00   0.00000000000000E+00   0.00000000000000E+00  -4.84354024162352E-06
      0.00000000000000E+00  -4.84354024162352E-06   5.98966575080003E-17   3.01354737333333E-01   3.01354737333333E-01
      0.00000000000000E+00   0.00000000000000E+00   4.84354024256797E-06   0.00000000000000E+00   4.84354024256797E-06
      1.34027295949995E-16   0.00000000000000E+00   0.00000000000000E+00   0.00000000000000E+00   0.00000000000000E+00
     -2.42852478739720E-37   2.42852478739720E-37   0.00000000000000E+00   2.56303325735688E-17   0.00000000000000E+00
      0.00000000000000E+00   0.00000000000000E+00   0.00000000000000E+00  -9.45929760721516E-16  -2.96474982876580E-17
     -9.75577259009174E-16  -2.22183256942450E-16
      1.82138067495111E-01
      0.00000000000000E+00   0.00000000000000E+00   0.00000000000000E+00   0.00000000000000E+00  -6.22598445140861E-06
      0.00000000000000E+00  -6.22598445140861E-06   5.66322442461027E-17   4.55345168737778E-01   4.55345168737778E-01
      0.00000000000000E+00   0.00000000000000E+00   6.22598445259740E-06   0.00000000000000E+00   6.22598445259740E-06
      1.68806151575391E-16   0.00000000000000E+00   0.00000000000000E+00   0.00000000000000E+00   0.00000000000000E+00
     -2.25273829872075E-37   2.25273829872075E-37   0.00000000000000E+00   4.77436321475254E-18   0.00000000000000E+00
      0.00000000000000E+00   0.00000000000000E+00   0.00000000000000E+00  -1.12545745063981E-15  -3.63544232350054E-17
     -1.16181187387482E-15  -2.35531423273166E-16
      2.69604632532836E-01
      0.00000000000000E+00   0.00000000000000E+00   0.00000000000000E+00   0.00000000000000E+00  -8.23838815967657E-06
      0.00000000000000E+00  -8.23838815967657E-06   5.23200830254767E-17   6.74011581332089E-01   6.74011581332089E-01
      0.00000000000000E+00   0.00000000000000E+00   8.23838816103029E-06   0.00000000000000E+00   8.23838816103029E-06
      2.16288325795190E-16   0.00000000000000E+00   0.00000000000000E+00   0.00000000000000E+00   0.00000000000000E+00
     -2.81410454985971E-37   2.81410454985971E-37   0.00000000000000E+00  -2.36676288009320E-17   0.00000000000000E+00
      0.00000000000000E+00   0.00000000000000E+00   0.00000000000000E+00  -1.35632702367445E-15  -4.36053575697594E-17
     -1.39993238124421E-15  -2.54588537691235E-16
      3.69604632532835E-01
      0.00000000000000E+00   0.00000000000000E+00   0.00000000000000E+00   0.00000000000000E+00  -1.06309653631136E-05
      0.00000000000000E+00  -1.06309653631136E-05   4.77704991702681E-17   9.24011581332089E-01   9.24011581332089E-01
      0.00000000000000E+00   0.00000000000000E+00   1.06309653647624E-05   0.00000000000000E+00   1.06309653647624E-05
      2.68756292056155E-16   0.00000000000000E+00   0.00000000000000E+00   0.00000000000000E+00   0.00000000000000E+00
     -2.36762319955047E-37   2.36762319955047E-37   0.00000000000000E+00  -5.51246853158089E-17   0.00000000000000E+00
      0.00000000000000E+00   0.00000000000000E+00   0.00000000000000E+00  -1.58705148796906E-15  -4.99152349008160E-17
     -1.63696672286988E-15  -2.76632610428980E-16
      4.69604632532835E-01
      0.00000000000000E+00   0.00000000000000E+00   0.00000000000000E+00   0.00000000000000E+00  -1.31118074357958E-05
      0.00000000000000E+00  -1.31118074357958E-05   4.35591666602313E-17   1.17401158133209E+00   1.17401158133209E+00
      0.00000000000000E+00   0.00000000000000E+00   1.31118074376788E-05   0.00000000000000E+00   1.31118074376788E-05
      3.19688994314154E-16   0.00000000000000E+00   0.00000000000000E+00   0.00000000000000E+00   0.00000000000000E+00
     -3.67773437620149E-37   3.67773437620149E-37   0.00000000000000E+00  -8.57888101718336E-17   0.00000000000000E+00
      0.00000000000000E+00   0.00000000000000E+00   0.00000000000000E+00  -1.78652653339341E-15  -5.49155015956715E-17
     -1.84144203498908E-15  -2.98833555840331E-16
      5.69604632532835E-01
      0.00000000000000E+00   0.00000000000000E+00   0.00000000000000E+00   0.00000000000000E+00  -1.56631474764008E-05
      0.00000000000000E+00  -1.56631474764008E-05   3.96313895167026E-17   1.42401158133209E+00   1.42401158133209E+00
      0.00000000000000E+00   0.00000000000000E+00   1.56631474783055E-05   0.00000000000000E+00   1.56631474783055E-05
      3.69391504034121E-16   0.00000000000000E+00   0.00000000000000E+00   0.00000000000000E+00   0.00000000000000E+00
     -4.39002331653430E-37   4.39002331653430E-37   0.00000000000000E+00  -1.15855249216335E-16   0.00000000000000E+00
      0.00000000000000E+00   0.00000000000000E+00   0.00000000000000E+00  -1.95911067314681E-15  -5.88939599420444E-17
     -2.01800463308886E-15  -3.21164989732994E-16
      6.69604632532835E-01
      0.00000000000000E+00   0.00000000000000E+00   0.00000000000000E+00   0.00000000000000E+00  -1.82676974902006E-05
      0.00000000000000E+00  -1.82676974902006E-05   3.59435287135645E-17   1.67401158133209E+00   1.67401158133209E+00
      0.00000000000000E+00   0.00000000000000E+00   1.82676974926110E-05   0.00000000000000E+00   1.82676974926110E-05
      4.18037712702432E-16   0.00000000000000E+00   0.00000000000000E+00   0.00000000000000E+00   0.00000000000000E+00
     -4.54141526478499E-37   4.54141526478499E-37   0.00000000000000E+00  -1.45438012476051E-16   0.00000000000000E+00
      0.00000000000000E+00   0.00000000000000E+00   0.00000000000000E+00  -2.10954817756438E-15  -6.19857429131813E-17
     -2.17153392047756E-15  -3.43599978091496E-16
      7.69604632532835E-01
      0.00000000000000E+00   0.00000000000000E+00   0.00000000000000E+00   0.00000000000000E+00  -2.09132614438892E-05
      0.00000000000000E+00  -2.09132614438892E-05   3.24586985000924E-17   1.92401158133209E+00   1.92401158133209E+00
      0.00000000000000E+00   0.00000000000000E+00   2.09132614460261E-05   0.00000000000000E+00   2.09132614460261E-05
      4.65772500435286E-16   0.00000000000000E+00   0.00000000000000E+00   0.00000000000000E+00   0.00000000000000E+00
     -2.08315685986652E-37   2.08315685986652E-37   0.00000000000000E+00  -1.74627581829225E-16   0.00000000000000E+00
      0.00000000000000E+00   0.00000000000000E+00   0.00000000000000E+00  -2.24016392876217E-15  -6.48919615604946E-17
     -2.30505589032267E-15  -3.66116743275821E-16
      8.69604632532835E-01
      0.00000000000000E+00   0.00000000000000E+00   0.00000000000000E+00   0.00000000000000E+00  -2.35905870346450E-05
      0.00000000000000E+00  -2.35905870346450E-05   2.91469783116307E-17   2.17401158133209E+00   2.17401158133209E+00
      0.00000000000000E+00   0.00000000000000E+00   2.35905870371416E-05   0.00000000000000E+00   2.35905870371416E-05
      5.12735776996401E-16   0.00000000000000E+00   0.00000000000000E+00   0.00000000000000E+00   0.00000000000000E+00
     -3.20347932546686E-37   3.20347932546686E-37   0.00000000000000E+00  -2.03498159189859E-16   0.00000000000000E+00
      0.00000000000000E+00   0.00000000000000E+00   0.00000000000000E+00  -2.35920328374015E-15  -6.75008349073789E-17
     -2.42670411864753E-15  -3.88702536095460E-16
      9.69604632532835E-01
      0.00000000000000E+00   0.00000000000000E+00   0.00000000000000E+00   0.00000000000000E+00  -2.62916138603400E-05
      0.00000000000000E+00  -2.62916138603400E-05   2.59850310769150E-17   2.42401158133209E+00   2.42401158133209E+00
      0.00000000000000E+00   0.00000000000000E+00   2.62916138627496E-05   0.00000000000000E+00   2.62916138627496E-05
      5.59018386561505E-16   0.00000000000000E+00   0.00000000000000E+00   0.00000000000000E+00   0.00000000000000E+00
     -1.03740477173702E-37   1.03740477173702E-37   0.00000000000000E+00  -2.32098406869044E-16   0.00000000000000E+00
      0.00000000000000E+00   0.00000000000000E+00   0.00000000000000E+00  -2.46480517236300E-15  -6.95235140660972E-17
     -2.53432868642910E-15  -4.11341872544020E-16
      1.00000000000000E+00
      0.00000000000000E+00   0.00000000000000E+00   0.00000000000000E+00   0.00000000000000E+00  -2.71160140564431E-05
      0.00000000000000E+00  -2.71160140564431E-05   2.50507770008517E-17   2.50000000000000E+00   2.50000000000000E+00
      0.00000000000000E+00   0.00000000000000E+00   2.71160140589653E-05   0.00000000000000E+00   2.71160140589653E-05
      5.72958523428558E-16   0.00000000000000E+00   0.00000000000000E+00   0.00000000000000E+00   0.00000000000000E+00
     -3.12673729231783E-37   3.12673729231783E-37   0.00000000000000E+00  -2.40742459998757E-16   0.00000000000000E+00
      0.00000000000000E+00   0.00000000000000E+00   0.00000000000000E+00  -2.49483319744511E-15  -7.00274457624901E-17
     -2.56486064320760E-15  -4.18231842945558E-16
}
