DF-ISE text

Info {
  version   = 1.0
  type      = xyplot
  datasets  = [
    "time"
    "source OuterVoltage" "source InnerVoltage" "source QuasiFermiPotential" "source DisplacementCurrent" "source eCurrent"
    "source hCurrent" "source TotalCurrent" "source Charge" "drain OuterVoltage" "drain InnerVoltage"
    "drain QuasiFermiPotential" "drain DisplacementCurrent" "drain eCurrent" "drain hCurrent" "drain TotalCurrent"
    "drain Charge" "gate OuterVoltage" "gate InnerVoltage" "gate QuasiFermiPotential" "gate DisplacementCurrent"
    "gate eCurrent" "gate hCurrent" "gate TotalCurrent" "gate Charge" "substrate OuterVoltage"
    "substrate InnerVoltage" "substrate QuasiFermiPotential" "substrate DisplacementCurrent" "substrate eCurrent" "substrate hCurrent"
    "substrate TotalCurrent" "substrate Charge" ]
  functions = [
    Time
    OuterVoltage InnerVoltage QuasiFermiPotential DisplacementCurrent eCurrent
    hCurrent TotalCurrent Charge OuterVoltage InnerVoltage
    QuasiFermiPotential DisplacementCurrent eCurrent hCurrent TotalCurrent
    Charge OuterVoltage InnerVoltage QuasiFermiPotential DisplacementCurrent
    eCurrent hCurrent TotalCurrent Charge OuterVoltage
    InnerVoltage QuasiFermiPotential DisplacementCurrent eCurrent hCurrent
    TotalCurrent Charge ]
}

Data {
      0.00000000000000E+00
      0.00000000000000E+00   0.00000000000000E+00   0.00000000000000E+00   0.00000000000000E+00   3.30123762592620E-17
      0.00000000000000E+00   3.30123762592620E-17   7.54078920283660E-17   0.00000000000000E+00   0.00000000000000E+00
      0.00000000000000E+00   0.00000000000000E+00   9.88787056551803E-18   0.00000000000000E+00   9.88787056551803E-18
      7.69325814266491E-17   0.00000000000000E+00   0.00000000000000E+00   0.00000000000000E+00   0.00000000000000E+00
     -2.22860619544734E-35   2.22860619544734E-35   0.00000000000000E+00   8.06579246715909E-17   0.00000000000000E+00
      0.00000000000000E+00   0.00000000000000E+00   0.00000000000000E+00  -3.32870853210376E-20  -9.84146385619717E-32
     -3.32870853211360E-20  -2.36072493106096E-16
      1.00000000000000E-02
      0.00000000000000E+00   0.00000000000000E+00   0.00000000000000E+00   0.00000000000000E+00  -8.50784039253327E-07
      0.00000000000000E+00  -8.50784039253327E-07   7.47765091107696E-17   2.50000000000000E-02   2.50000000000000E-02
      0.00000000000000E+00   0.00000000000000E+00   8.50784039437500E-07   0.00000000000000E+00   8.50784039437500E-07
      8.03158945472887E-17   0.00000000000000E+00   0.00000000000000E+00   0.00000000000000E+00   0.00000000000000E+00
     -2.21767982059189E-35   2.21767982059189E-35   0.00000000000000E+00   7.44540350309108E-17   0.00000000000000E+00
      0.00000000000000E+00   0.00000000000000E+00   0.00000000000000E+00  -3.32230127752007E-16  -6.40577566923233E-18
     -3.38635903421239E-16  -2.32908195100903E-16
      2.46000000000000E-02
      0.00000000000000E+00   0.00000000000000E+00   0.00000000000000E+00   0.00000000000000E+00  -1.64251745359730E-06
      0.00000000000000E+00  -1.64251745359730E-06   7.39874330930259E-17   6.15000000000000E-02   6.15000000000000E-02
      0.00000000000000E+00   0.00000000000000E+00   1.64251745410913E-06   0.00000000000000E+00   1.64251745410913E-06
      8.55642885781198E-17   0.00000000000000E+00   0.00000000000000E+00   0.00000000000000E+00   0.00000000000000E+00
     -2.22955083268031E-35   2.22955083268031E-35   0.00000000000000E+00   6.64304542300737E-17   0.00000000000000E+00
      0.00000000000000E+00   0.00000000000000E+00   0.00000000000000E+00  -5.17942528730800E-16  -1.24269329680232E-17
     -5.30369461698823E-16  -2.29775331088702E-16
      4.59160000000000E-02
      0.00000000000000E+00   0.00000000000000E+00   0.00000000000000E+00   0.00000000000000E+00  -2.24271012904744E-06
      0.00000000000000E+00  -2.24271012904744E-06   7.30709999076157E-17   1.14790000000000E-01   1.14790000000000E-01
      0.00000000000000E+00   0.00000000000000E+00   2.24271012968170E-06   0.00000000000000E+00   2.24271012968170E-06
      9.40370280075214E-17   0.00000000000000E+00   0.00000000000000E+00   0.00000000000000E+00   0.00000000000000E+00
     -2.22916564358212E-35   2.22916564358212E-35   0.00000000000000E+00   5.69152109282411E-17   0.00000000000000E+00
      0.00000000000000E+00   0.00000000000000E+00   0.00000000000000E+00  -6.22937927742612E-16  -1.79930823418079E-17
     -6.40931010084420E-16  -2.28476461755579E-16
      7.67531466666667E-02
      0.00000000000000E+00   0.00000000000000E+00   0.00000000000000E+00   0.00000000000000E+00  -2.78083482346161E-06
      0.00000000000000E+00  -2.78083482346161E-06   7.19660040745036E-17   1.91882866666667E-01   1.91882866666667E-01
      0.00000000000000E+00   0.00000000000000E+00   2.78083482413079E-06   0.00000000000000E+00   2.78083482413079E-06
      1.07752311846910E-16   0.00000000000000E+00   0.00000000000000E+00   0.00000000000000E+00   0.00000000000000E+00
     -2.24088764144669E-35   2.24088764144669E-35   0.00000000000000E+00   4.57218142511088E-17   0.00000000000000E+00
      0.00000000000000E+00   0.00000000000000E+00   0.00000000000000E+00   1.63895328193661E-14  -2.35609434264159E-17
      1.63659718759397E-14  -2.30924787536449E-16
      1.20953056888889E-01
      0.00000000000000E+00   0.00000000000000E+00   0.00000000000000E+00   0.00000000000000E+00  -3.47250085392279E-06
      0.00000000000000E+00  -3.47250085392279E-06   7.05076185560975E-17   3.02382642222222E-01   3.02382642222222E-01
      0.00000000000000E+00   0.00000000000000E+00   3.47250085484396E-06   0.00000000000000E+00   3.47250085484396E-06
      1.28639439026615E-16   0.00000000000000E+00   0.00000000000000E+00   0.00000000000000E+00   0.00000000000000E+00
     -2.22348288716170E-35   2.22348288716170E-35   0.00000000000000E+00   3.11516583527323E-17   0.00000000000000E+00
      0.00000000000000E+00   0.00000000000000E+00   0.00000000000000E+00  -2.33917130270412E-16  -2.97095717543708E-17
     -2.63626702024783E-16  -2.37421682973658E-16
      1.83716929404444E-01
      0.00000000000000E+00   0.00000000000000E+00   0.00000000000000E+00   0.00000000000000E+00  -4.44587389324773E-06
      0.00000000000000E+00  -4.44587389324773E-06   6.85632339683359E-17   4.59292323511111E-01   4.59292323511111E-01
      0.00000000000000E+00   0.00000000000000E+00   4.44587389424630E-06   0.00000000000000E+00   4.44587389424630E-06
      1.58526764180936E-16   0.00000000000000E+00   0.00000000000000E+00   0.00000000000000E+00   0.00000000000000E+00
     -2.21743661963254E-35   2.21743661963254E-35   0.00000000000000E+00   1.14137275926989E-17   0.00000000000000E+00
      0.00000000000000E+00   0.00000000000000E+00   0.00000000000000E+00  -8.50654636378032E-16  -3.65183461239236E-17
     -8.87172982501956E-16  -2.48245563966823E-16
      2.72841628376533E-01
      0.00000000000000E+00   0.00000000000000E+00   0.00000000000000E+00   0.00000000000000E+00  -5.87039720387114E-06
      0.00000000000000E+00  -5.87039720387114E-06   6.59956182360921E-17   6.82104070941333E-01   6.82104070941333E-01
      0.00000000000000E+00   0.00000000000000E+00   5.87039720501076E-06   0.00000000000000E+00   5.87039720501076E-06
      2.00500287562368E-16   0.00000000000000E+00   0.00000000000000E+00   0.00000000000000E+00   0.00000000000000E+00
     -2.21616520255607E-35   2.21616520255607E-35   0.00000000000000E+00  -1.56727421178751E-17   0.00000000000000E+00
      0.00000000000000E+00   0.00000000000000E+00   0.00000000000000E+00  -1.04311639417231E-15  -4.39851939744720E-17
     -1.08710158814678E-15  -2.64800604458682E-16
      3.72841628376533E-01
      0.00000000000000E+00   0.00000000000000E+00   0.00000000000000E+00   0.00000000000000E+00  -7.54869503384490E-06
      0.00000000000000E+00  -7.54869503384490E-06   6.33436258550447E-17   9.32104070941333E-01   9.32104070941333E-01
      0.00000000000000E+00   0.00000000000000E+00   7.54869503539352E-06   0.00000000000000E+00   7.54869503539352E-06
      2.47143831083692E-16   0.00000000000000E+00   0.00000000000000E+00   0.00000000000000E+00   0.00000000000000E+00
     -2.21096686865470E-35   2.21096686865470E-35   0.00000000000000E+00  -4.52902191092134E-17   0.00000000000000E+00
      0.00000000000000E+00   0.00000000000000E+00   0.00000000000000E+00   7.77404498496918E-13  -5.04879969119927E-17
      7.77354010500006E-13  -2.84498645820330E-16
      4.72841628376533E-01
      0.00000000000000E+00   0.00000000000000E+00   0.00000000000000E+00   0.00000000000000E+00  -9.31125237240048E-06
      0.00000000000000E+00  -9.31125237240048E-06   6.08997828888126E-17   1.18210407094133E+00   1.18210407094133E+00
      0.00000000000000E+00   0.00000000000000E+00   9.31125237414434E-06   0.00000000000000E+00   9.31125237414434E-06
      2.93360142102706E-16   0.00000000000000E+00   0.00000000000000E+00   0.00000000000000E+00   0.00000000000000E+00
     -2.22684618735273E-35   2.22684618735273E-35   0.00000000000000E+00  -7.43890608579470E-17   0.00000000000000E+00
      0.00000000000000E+00   0.00000000000000E+00   0.00000000000000E+00  -1.64788783087140E-15  -5.56241492311555E-17
     -1.70351198010256E-15  -3.04971055633819E-16
      5.72841628376533E-01
      0.00000000000000E+00   0.00000000000000E+00   0.00000000000000E+00   0.00000000000000E+00  -1.11483541412335E-05
      0.00000000000000E+00  -1.11483541412335E-05   5.86354843627821E-17   1.43210407094133E+00   1.43210407094133E+00
      0.00000000000000E+00   0.00000000000000E+00   1.11483541429863E-05   0.00000000000000E+00   1.11483541429863E-05
      3.39102571338521E-16   0.00000000000000E+00   0.00000000000000E+00   0.00000000000000E+00   0.00000000000000E+00
     -2.22074130670248E-35   2.22074130670248E-35   0.00000000000000E+00  -1.03100687042067E-16   0.00000000000000E+00
      0.00000000000000E+00   0.00000000000000E+00   0.00000000000000E+00  -1.83623947702677E-15  -5.99789047842466E-17
     -1.89621838181102E-15  -3.25987537401944E-16
      6.72841628376533E-01
      0.00000000000000E+00   0.00000000000000E+00   0.00000000000000E+00   0.00000000000000E+00  -1.30488118773770E-05
      0.00000000000000E+00  -1.30488118773770E-05   5.65255176284196E-17   1.68210407094133E+00   1.68210407094133E+00
      0.00000000000000E+00   0.00000000000000E+00   1.30488118791167E-05   0.00000000000000E+00   1.30488118791167E-05
      3.84320418948868E-16   0.00000000000000E+00   0.00000000000000E+00   0.00000000000000E+00   0.00000000000000E+00
     -2.21225391057272E-35   2.21225391057272E-35   0.00000000000000E+00  -1.31492588322763E-16   0.00000000000000E+00
      0.00000000000000E+00   0.00000000000000E+00   0.00000000000000E+00  -1.99294653183211E-15  -6.34728624662487E-17
     -2.05641939429836E-15  -3.47412061459460E-16
      7.72841628376533E-01
      0.00000000000000E+00   0.00000000000000E+00   0.00000000000000E+00   0.00000000000000E+00  -1.50025751894565E-05
      0.00000000000000E+00  -1.50025751894565E-05   5.45477441009022E-17   1.93210407094133E+00   1.93210407094133E+00
      0.00000000000000E+00   0.00000000000000E+00   1.50025751922431E-05   0.00000000000000E+00   1.50025751922431E-05
      4.29043360590476E-16   0.00000000000000E+00   0.00000000000000E+00   0.00000000000000E+00   0.00000000000000E+00
     -2.21220455663972E-35   2.21220455663972E-35   0.00000000000000E+00  -1.59620412707658E-16   0.00000000000000E+00
      0.00000000000000E+00   0.00000000000000E+00   0.00000000000000E+00  -2.13226904705678E-15  -6.63044921558462E-17
     -2.19857353921263E-15  -3.69159837391500E-16
      8.72841628376533E-01
      0.00000000000000E+00   0.00000000000000E+00   0.00000000000000E+00   0.00000000000000E+00  -1.70007361634947E-05
      0.00000000000000E+00  -1.70007361634947E-05   5.26833707155601E-17   2.18210407094133E+00   2.18210407094133E+00
      0.00000000000000E+00   0.00000000000000E+00   1.70007361666192E-05   0.00000000000000E+00   1.70007361666192E-05
      4.73350917635738E-16   0.00000000000000E+00   0.00000000000000E+00   0.00000000000000E+00   0.00000000000000E+00
     -2.21331151263781E-35   2.21331151263781E-35   0.00000000000000E+00  -1.87533223891949E-16   0.00000000000000E+00
      0.00000000000000E+00   0.00000000000000E+00   0.00000000000000E+00   1.88620318926739E-15  -6.90091181456048E-17
      1.81719407112178E-15  -3.91173599474315E-16
      9.72841628376533E-01
      0.00000000000000E+00   0.00000000000000E+00   0.00000000000000E+00   0.00000000000000E+00  -1.90367531611251E-05
      0.00000000000000E+00  -1.90367531611251E-05   5.09163468947525E-17   2.43210407094133E+00   2.43210407094133E+00
      0.00000000000000E+00   0.00000000000000E+00   1.90367531631652E-05   0.00000000000000E+00   1.90367531631652E-05
      5.17306671280509E-16   0.00000000000000E+00   0.00000000000000E+00   0.00000000000000E+00   0.00000000000000E+00
     -2.22449496517834E-35   2.22449496517834E-35   0.00000000000000E+00  -2.15267881731211E-16   0.00000000000000E+00
      0.00000000000000E+00   0.00000000000000E+00   0.00000000000000E+00  -1.38747388264723E-15  -7.14870064041065E-17
     -1.45896088905133E-15  -4.13408606060069E-16
      1.00000000000000E+00
      0.00000000000000E+00   0.00000000000000E+00   0.00000000000000E+00   0.00000000000000E+00  -1.95953097800499E-05
      0.00000000000000E+00  -1.95953097800499E-05   5.04515313919296E-17   2.50000000000000E+00   2.50000000000000E+00
      0.00000000000000E+00   0.00000000000000E+00   1.95953097832500E-05   0.00000000000000E+00   1.95953097832500E-05
      5.29188028098114E-16   0.00000000000000E+00   0.00000000000000E+00   0.00000000000000E+00   0.00000000000000E+00
     -2.19843556538326E-35   2.19843556538326E-35   0.00000000000000E+00  -2.22772542321017E-16   0.00000000000000E+00
      0.00000000000000E+00   0.00000000000000E+00   0.00000000000000E+00  -2.39678409291078E-15  -7.20765788351612E-17
     -2.46886067174594E-15  -4.19480998110531E-16
}
