DF-ISE text

Info {
  version   = 1.0
  type      = xyplot
  datasets  = [
    "time"
    "source OuterVoltage" "source InnerVoltage" "source QuasiFermiPotential" "source DisplacementCurrent" "source eCurrent"
    "source hCurrent" "source TotalCurrent" "source Charge" "drain OuterVoltage" "drain InnerVoltage"
    "drain QuasiFermiPotential" "drain DisplacementCurrent" "drain eCurrent" "drain hCurrent" "drain TotalCurrent"
    "drain Charge" "gate OuterVoltage" "gate InnerVoltage" "gate QuasiFermiPotential" "gate DisplacementCurrent"
    "gate eCurrent" "gate hCurrent" "gate TotalCurrent" "gate Charge" "substrate OuterVoltage"
    "substrate InnerVoltage" "substrate QuasiFermiPotential" "substrate DisplacementCurrent" "substrate eCurrent" "substrate hCurrent"
    "substrate TotalCurrent" "substrate Charge" ]
  functions = [
    Time
    OuterVoltage InnerVoltage QuasiFermiPotential DisplacementCurrent eCurrent
    hCurrent TotalCurrent Charge OuterVoltage InnerVoltage
    QuasiFermiPotential DisplacementCurrent eCurrent hCurrent TotalCurrent
    Charge OuterVoltage InnerVoltage QuasiFermiPotential DisplacementCurrent
    eCurrent hCurrent TotalCurrent Charge OuterVoltage
    InnerVoltage QuasiFermiPotential DisplacementCurrent eCurrent hCurrent
    TotalCurrent Charge ]
}

Data {
      0.00000000000000E+00
      0.00000000000000E+00   0.00000000000000E+00   0.00000000000000E+00   0.00000000000000E+00  -1.97874897427623E-15
      0.00000000000000E+00  -1.97874897427623E-15  -4.46624486913237E-17   0.00000000000000E+00   0.00000000000000E+00
      0.00000000000000E+00   0.00000000000000E+00   8.59382223487637E-16   0.00000000000000E+00   8.59382223487637E-16
     -2.01563338331936E-17   1.00000000000000E+00   1.00000000000000E+00   0.00000000000000E+00   0.00000000000000E+00
     -8.79672170715877E-36   8.79672170715877E-36   0.00000000000000E+00   7.21509903193025E-16   0.00000000000000E+00
      0.00000000000000E+00   0.00000000000000E+00   0.00000000000000E+00   9.73729013672891E-18  -2.63675959099411E-30
      9.73729013672627E-18  -6.42652516497762E-16
      1.00000000000000E-02
      0.00000000000000E+00   0.00000000000000E+00   0.00000000000000E+00   0.00000000000000E+00  -1.05565840629450E-05
      0.00000000000000E+00  -1.05565840629450E-05  -4.60214423293160E-17   2.50000000000000E-02   2.50000000000000E-02
      0.00000000000000E+00   0.00000000000000E+00   1.05565840615794E-05   0.00000000000000E+00   1.05565840615794E-05
     -1.49020214188019E-17   1.00000000000000E+00   1.00000000000000E+00   0.00000000000000E+00   0.00000000000000E+00
     -8.67562400533494E-36   8.67562400533494E-36   0.00000000000000E+00   7.13023311675727E-16   0.00000000000000E+00
      0.00000000000000E+00   0.00000000000000E+00   0.00000000000000E+00  -4.10889834222430E-16  -6.07781795847139E-18
     -4.16967652180901E-16  -6.38249781034720E-16
      2.46000000000000E-02
      0.00000000000000E+00   0.00000000000000E+00   0.00000000000000E+00   0.00000000000000E+00  -2.39482290849841E-05
      0.00000000000000E+00  -2.39482290849841E-05  -4.79450262052132E-17   6.15000000000000E-02   6.15000000000000E-02
      0.00000000000000E+00   0.00000000000000E+00   2.39482290845197E-05   0.00000000000000E+00   2.39482290845197E-05
     -7.19015986124720E-18   1.00000000000000E+00   1.00000000000000E+00   0.00000000000000E+00   0.00000000000000E+00
     -8.73717205192497E-36   8.73717205192497E-36   0.00000000000000E+00   7.00778216514472E-16   0.00000000000000E+00
      0.00000000000000E+00   0.00000000000000E+00   0.00000000000000E+00  -6.48402558705267E-16  -1.20769543243880E-17
     -6.60479513029655E-16  -6.32068293537345E-16
      4.59160000000000E-02
      0.00000000000000E+00   0.00000000000000E+00   0.00000000000000E+00   0.00000000000000E+00  -3.97319897480221E-05
      0.00000000000000E+00  -3.97319897480221E-05  -5.06070381717983E-17   1.14790000000000E-01   1.14790000000000E-01
      0.00000000000000E+00   0.00000000000000E+00   3.97319897492084E-05   0.00000000000000E+00   3.97319897492084E-05
      4.18327243818708E-18   1.00000000000000E+00   1.00000000000000E+00   0.00000000000000E+00   0.00000000000000E+00
     -8.77650536900582E-36   8.77650536900582E-36   0.00000000000000E+00   6.83287993222639E-16   0.00000000000000E+00
      0.00000000000000E+00   0.00000000000000E+00   0.00000000000000E+00  -8.13507351936634E-16  -1.80181286416352E-17
     -8.31525480578269E-16  -6.23691606270497E-16
      7.70373600000000E-02
      0.00000000000000E+00   0.00000000000000E+00   0.00000000000000E+00   0.00000000000000E+00  -5.65706628240341E-05
      0.00000000000000E+00  -5.65706628240341E-05  -5.41465587071631E-17   1.92593400000000E-01   1.92593400000000E-01
      0.00000000000000E+00   0.00000000000000E+00   5.65706628265413E-05   0.00000000000000E+00   5.65706628265413E-05
      2.11449611815276E-17   1.00000000000000E+00   1.00000000000000E+00   0.00000000000000E+00   0.00000000000000E+00
     -8.70622964330618E-36   8.70622964330618E-36   0.00000000000000E+00   6.58844069396715E-16   0.00000000000000E+00
      0.00000000000000E+00   0.00000000000000E+00   0.00000000000000E+00  -9.15434669819771E-16  -2.43192621286116E-17
     -9.39753931948383E-16  -6.13257207511081E-16
      1.21644642666667E-01
      0.00000000000000E+00   0.00000000000000E+00   0.00000000000000E+00   0.00000000000000E+00  -7.20250887753535E-05
      0.00000000000000E+00  -7.20250887753535E-05  -5.84778006204954E-17   3.04111606666667E-01   3.04111606666667E-01
      0.00000000000000E+00   0.00000000000000E+00   7.20250887755684E-05   0.00000000000000E+00   7.20250887755684E-05
      4.66704690585613E-17   1.00000000000000E+00   1.00000000000000E+00   0.00000000000000E+00   0.00000000000000E+00
     -8.77723231101816E-36   8.77723231101816E-36   0.00000000000000E+00   6.26863799477130E-16   0.00000000000000E+00
      0.00000000000000E+00   0.00000000000000E+00   0.00000000000000E+00  -1.06692598670636E-15  -3.11209922239316E-17
     -1.09804697893029E-15  -6.03313611806762E-16
      1.84986984053333E-01
      0.00000000000000E+00   0.00000000000000E+00   0.00000000000000E+00   0.00000000000000E+00  -8.43417090463759E-05
      0.00000000000000E+00  -8.43417090463759E-05  -6.33628379321855E-17   4.62467460133333E-01   4.62467460133333E-01
      0.00000000000000E+00   0.00000000000000E+00   8.43417090496047E-05   0.00000000000000E+00   8.43417090496047E-05
      8.72381907194223E-17   1.00000000000000E+00   1.00000000000000E+00   0.00000000000000E+00   0.00000000000000E+00
     -8.67845331253263E-36   8.67845331253263E-36   0.00000000000000E+00   5.88759131467231E-16   0.00000000000000E+00
      0.00000000000000E+00   0.00000000000000E+00   0.00000000000000E+00  -1.27252812362018E-15  -3.82768941604795E-17
     -1.31080501778066E-15  -6.02089004309188E-16
      2.74088544270578E-01
      0.00000000000000E+00   0.00000000000000E+00   0.00000000000000E+00   0.00000000000000E+00  -9.48042220541361E-05
      0.00000000000000E+00  -9.48042220541361E-05  -6.88957089964383E-17   6.85221360676444E-01   6.85221360676444E-01
      0.00000000000000E+00   0.00000000000000E+00   9.48042220573919E-05   0.00000000000000E+00   9.48042220573919E-05
      1.52398779161957E-16   1.00000000000000E+00   1.00000000000000E+00   0.00000000000000E+00   0.00000000000000E+00
     -8.65409364974622E-36   8.65409364974622E-36   0.00000000000000E+00   5.44657437361496E-16   0.00000000000000E+00
      0.00000000000000E+00   0.00000000000000E+00   0.00000000000000E+00  -1.50816383278814E-15  -4.55769278638731E-17
     -1.55374076065201E-15  -6.19302104097527E-16
      3.74088544270578E-01
      0.00000000000000E+00   0.00000000000000E+00   0.00000000000000E+00   0.00000000000000E+00  -1.03893932358477E-04
      0.00000000000000E+00  -1.03893932358477E-04  -7.43219059685818E-17   9.35221360676444E-01   9.35221360676444E-01
      0.00000000000000E+00   0.00000000000000E+00   1.03893932361353E-04   0.00000000000000E+00   1.03893932361353E-04
      2.25943059798802E-16   1.00000000000000E+00   1.00000000000000E+00   0.00000000000000E+00   0.00000000000000E+00
     -8.76615843022288E-36   8.76615843022288E-36   0.00000000000000E+00   4.99685280574245E-16   0.00000000000000E+00
      0.00000000000000E+00   0.00000000000000E+00   0.00000000000000E+00  -1.73319884607077E-15  -5.15422241629586E-17
     -1.78474107023373E-15  -6.44345795055274E-16
      4.74088544270578E-01
      0.00000000000000E+00   0.00000000000000E+00   0.00000000000000E+00   0.00000000000000E+00  -1.11819452541181E-04
      0.00000000000000E+00  -1.11819452541181E-04  -7.92631255880688E-17   1.18522136067644E+00   1.18522136067644E+00
      0.00000000000000E+00   0.00000000000000E+00   1.11819452541951E-04   0.00000000000000E+00   1.11819452541951E-04
      2.98250743363946E-16   1.00000000000000E+00   1.00000000000000E+00   0.00000000000000E+00   0.00000000000000E+00
     -8.69282773210495E-36   8.69282773210495E-36   0.00000000000000E+00   4.56676852858699E-16   0.00000000000000E+00
      0.00000000000000E+00   0.00000000000000E+00   0.00000000000000E+00  -1.92046770512269E-15  -5.62485406674282E-17
     -1.97671624579012E-15  -6.70605456166762E-16
      5.74088544270578E-01
      0.00000000000000E+00   0.00000000000000E+00   0.00000000000000E+00   0.00000000000000E+00  -1.19088311105035E-04
      0.00000000000000E+00  -1.19088311105035E-04  -8.38614593816739E-17   1.43522136067644E+00   1.43522136067644E+00
      0.00000000000000E+00   0.00000000000000E+00   1.19088311109947E-04   0.00000000000000E+00   1.19088311109947E-04
      3.70403606719855E-16   1.00000000000000E+00   1.00000000000000E+00   0.00000000000000E+00   0.00000000000000E+00
     -8.59956124635255E-36   8.59956124635255E-36   0.00000000000000E+00   4.14700167171198E-16   0.00000000000000E+00
      0.00000000000000E+00   0.00000000000000E+00   0.00000000000000E+00  -2.09034660512836E-15  -5.96877638836036E-17
     -2.15003436901197E-15  -6.98088295332828E-16
      6.74088544270578E-01
      0.00000000000000E+00   0.00000000000000E+00   0.00000000000000E+00   0.00000000000000E+00  -1.25920523715392E-04
      0.00000000000000E+00  -1.25920523715392E-04  -8.81947685714380E-17   1.68522136067644E+00   1.68522136067644E+00
      0.00000000000000E+00   0.00000000000000E+00   1.25920523722170E-04   0.00000000000000E+00   1.25920523722170E-04
      4.42266914611799E-16   1.00000000000000E+00   1.00000000000000E+00   0.00000000000000E+00   0.00000000000000E+00
     -8.61741343566697E-36   8.61741343566697E-36   0.00000000000000E+00   3.73444066733803E-16   0.00000000000000E+00
      0.00000000000000E+00   0.00000000000000E+00   0.00000000000000E+00  -2.22096977207705E-15  -6.27756398517040E-17
     -2.28374541192875E-15  -7.26270652900012E-16
      7.74088544270578E-01
      0.00000000000000E+00   0.00000000000000E+00   0.00000000000000E+00   0.00000000000000E+00  -1.32424735927248E-04
      0.00000000000000E+00  -1.32424735927248E-04  -9.23101520737078E-17   1.93522136067644E+00   1.93522136067644E+00
      0.00000000000000E+00   0.00000000000000E+00   1.32424735922983E-04   0.00000000000000E+00   1.32424735922983E-04
      5.13742575469901E-16   1.00000000000000E+00   1.00000000000000E+00   0.00000000000000E+00   0.00000000000000E+00
     -8.82683273166865E-36   8.82683273166865E-36   0.00000000000000E+00   3.32829181744530E-16   0.00000000000000E+00
      0.00000000000000E+00   0.00000000000000E+00   0.00000000000000E+00  -2.35758006597952E-15  -6.55736983667327E-17
     -2.42315376434625E-15  -7.54927982784169E-16
      8.74088544270578E-01
      0.00000000000000E+00   0.00000000000000E+00   0.00000000000000E+00   0.00000000000000E+00  -1.38676531160826E-04
      0.00000000000000E+00  -1.38676531160826E-04  -9.62438463370474E-17   2.18522136067644E+00   2.18522136067644E+00
      0.00000000000000E+00   0.00000000000000E+00   1.38676531157373E-04   0.00000000000000E+00   1.38676531157373E-04
      5.84702394207465E-16   1.00000000000000E+00   1.00000000000000E+00   0.00000000000000E+00   0.00000000000000E+00
     -8.70133031762837E-36   8.70133031762837E-36   0.00000000000000E+00   2.92757932921879E-16   0.00000000000000E+00
      0.00000000000000E+00   0.00000000000000E+00   0.00000000000000E+00  -2.46929880975453E-15  -6.76771785465171E-17
     -2.53697598830105E-15  -7.83798229489709E-16
      9.74088544270578E-01
      0.00000000000000E+00   0.00000000000000E+00   0.00000000000000E+00   0.00000000000000E+00  -1.44713342204553E-04
      0.00000000000000E+00  -1.44713342204553E-04  -1.00018416569252E-16   2.43522136067644E+00   2.43522136067644E+00
      0.00000000000000E+00   0.00000000000000E+00   1.44713342203057E-04   0.00000000000000E+00   1.44713342203057E-04
      6.55087834367502E-16   1.00000000000000E+00   1.00000000000000E+00   0.00000000000000E+00   0.00000000000000E+00
     -8.88005175426829E-36   8.88005175426829E-36   0.00000000000000E+00   2.53254770564353E-16   0.00000000000000E+00
      0.00000000000000E+00   0.00000000000000E+00   0.00000000000000E+00  -2.56562560766244E-15  -6.91509482191052E-17
     -2.63477655588155E-15  -8.12824817695506E-16
      1.00000000000000E+00
      0.00000000000000E+00   0.00000000000000E+00   0.00000000000000E+00   0.00000000000000E+00  -1.46246891618360E-04
      0.00000000000000E+00  -1.46246891618360E-04  -1.00973056801858E-16   2.50000000000000E+00   2.50000000000000E+00
      0.00000000000000E+00   0.00000000000000E+00   1.46246891631793E-04   0.00000000000000E+00   1.46246891631793E-04
      6.73217266867388E-16   1.00000000000000E+00   1.00000000000000E+00   0.00000000000000E+00   0.00000000000000E+00
     -8.91332252545370E-36   8.91332252545370E-36   0.00000000000000E+00   2.43111249295398E-16   0.00000000000000E+00
      0.00000000000000E+00   0.00000000000000E+00   0.00000000000000E+00  -2.60145228447238E-15  -6.94603225057452E-17
     -2.67091260697812E-15  -8.20353894582429E-16
}
