DF-ISE text

Info {
  version   = 1.0
  type      = xyplot
  datasets  = [
    "time"
    "source OuterVoltage" "source InnerVoltage" "source QuasiFermiPotential" "source DisplacementCurrent" "source eCurrent"
    "source hCurrent" "source TotalCurrent" "source Charge" "drain OuterVoltage" "drain InnerVoltage"
    "drain QuasiFermiPotential" "drain DisplacementCurrent" "drain eCurrent" "drain hCurrent" "drain TotalCurrent"
    "drain Charge" "gate OuterVoltage" "gate InnerVoltage" "gate QuasiFermiPotential" "gate DisplacementCurrent"
    "gate eCurrent" "gate hCurrent" "gate TotalCurrent" "gate Charge" "substrate OuterVoltage"
    "substrate InnerVoltage" "substrate QuasiFermiPotential" "substrate DisplacementCurrent" "substrate eCurrent" "substrate hCurrent"
    "substrate TotalCurrent" "substrate Charge" ]
  functions = [
    Time
    OuterVoltage InnerVoltage QuasiFermiPotential DisplacementCurrent eCurrent
    hCurrent TotalCurrent Charge OuterVoltage InnerVoltage
    QuasiFermiPotential DisplacementCurrent eCurrent hCurrent TotalCurrent
    Charge OuterVoltage InnerVoltage QuasiFermiPotential DisplacementCurrent
    eCurrent hCurrent TotalCurrent Charge OuterVoltage
    InnerVoltage QuasiFermiPotential DisplacementCurrent eCurrent hCurrent
    TotalCurrent Charge ]
}

Data {
      0.00000000000000E+00
      0.00000000000000E+00   0.00000000000000E+00   0.00000000000000E+00   0.00000000000000E+00  -1.19950219456179E-15
      0.00000000000000E+00  -1.19950219456179E-15  -2.59422277065276E-16   0.00000000000000E+00   0.00000000000000E+00
      0.00000000000000E+00   0.00000000000000E+00   7.95264401536906E-16   0.00000000000000E+00   7.95264401536906E-16
     -2.13509958407711E-16   3.00000000000000E+00   3.00000000000000E+00   0.00000000000000E+00   0.00000000000000E+00
     -9.28741025281729E-36   9.28741025281729E-36   0.00000000000000E+00   2.11304141133779E-15   0.00000000000000E+00
      0.00000000000000E+00   0.00000000000000E+00   0.00000000000000E+00  -5.14472423142636E-17   2.43500742262794E-30
     -5.14472423142612E-17  -1.59736526411814E-15
      1.00000000000000E-02
      0.00000000000000E+00   0.00000000000000E+00   0.00000000000000E+00   0.00000000000000E+00  -2.22592906448263E-05
      0.00000000000000E+00  -2.22592906448263E-05  -2.60783118153888E-16   2.50000000000000E-02   2.50000000000000E-02
      0.00000000000000E+00   0.00000000000000E+00   2.22592906468721E-05   0.00000000000000E+00   2.22592906468721E-05
     -2.08263122371426E-16   3.00000000000000E+00   3.00000000000000E+00   0.00000000000000E+00   0.00000000000000E+00
     -9.20546955399857E-36   9.20546955399857E-36   0.00000000000000E+00   2.10435165260217E-15   0.00000000000000E+00
      0.00000000000000E+00   0.00000000000000E+00   0.00000000000000E+00  -4.47281103214835E-16  -6.08925220192419E-18
     -4.53370355416759E-16  -1.59274821227259E-15
      2.46000000000000E-02
      0.00000000000000E+00   0.00000000000000E+00   0.00000000000000E+00   0.00000000000000E+00  -5.19547278744087E-05
      0.00000000000000E+00  -5.19547278744087E-05  -2.62738042711471E-16   6.15000000000000E-02   6.15000000000000E-02
      0.00000000000000E+00   0.00000000000000E+00   5.19547278768560E-05   0.00000000000000E+00   5.19547278768560E-05
     -2.00572397584397E-16   3.00000000000000E+00   3.00000000000000E+00   0.00000000000000E+00   0.00000000000000E+00
     -9.12179311771490E-36   9.12179311771490E-36   0.00000000000000E+00   2.09172250405570E-15   0.00000000000000E+00
      0.00000000000000E+00   0.00000000000000E+00   0.00000000000000E+00  -7.01299197238972E-16  -1.21341919857317E-17
     -7.13433389224704E-16  -1.58612755185319E-15
      4.59160000000000E-02
      0.00000000000000E+00   0.00000000000000E+00   0.00000000000000E+00   0.00000000000000E+00  -8.97861543037861E-05
      0.00000000000000E+00  -8.97861543037861E-05  -2.65516545405347E-16   1.14790000000000E-01   1.14790000000000E-01
      0.00000000000000E+00   0.00000000000000E+00   8.97861543002827E-05   0.00000000000000E+00   8.97861543002827E-05
     -1.89270472269249E-16   3.00000000000000E+00   3.00000000000000E+00   0.00000000000000E+00   0.00000000000000E+00
     -9.35397551555502E-36   9.35397551555502E-36   0.00000000000000E+00   2.07342414245077E-15   0.00000000000000E+00
      0.00000000000000E+00   0.00000000000000E+00   0.00000000000000E+00  -8.29193276161339E-16  -1.81739050248220E-17
     -8.47367181186161E-16  -1.57675091710941E-15
      7.70373600000000E-02
      0.00000000000000E+00   0.00000000000000E+00   0.00000000000000E+00   0.00000000000000E+00  -1.35194880283318E-04
      0.00000000000000E+00  -1.35194880283318E-04  -2.69394294800932E-16   1.92593400000000E-01   1.92593400000000E-01
      0.00000000000000E+00   0.00000000000000E+00   1.35194880284114E-04   0.00000000000000E+00   1.35194880284114E-04
     -1.72585933153063E-16   3.00000000000000E+00   3.00000000000000E+00   0.00000000000000E+00   0.00000000000000E+00
     -9.31726474794948E-36   9.31726474794948E-36   0.00000000000000E+00   2.04706197592205E-15   0.00000000000000E+00
      0.00000000000000E+00   0.00000000000000E+00   0.00000000000000E+00  -9.15041150257557E-16  -2.46507052197743E-17
     -9.39691855477331E-16  -1.56377741584299E-15
      1.21644642666667E-01
      0.00000000000000E+00   0.00000000000000E+00   0.00000000000000E+00   0.00000000000000E+00  -1.84843738757119E-04
      0.00000000000000E+00  -1.84843738757119E-04  -2.74555581169337E-16   3.04111606666667E-01   3.04111606666667E-01
      0.00000000000000E+00   0.00000000000000E+00   1.84843738764825E-04   0.00000000000000E+00   1.84843738764825E-04
     -1.48213422157970E-16   3.00000000000000E+00   3.00000000000000E+00   0.00000000000000E+00   0.00000000000000E+00
     -9.26961266602115E-36   9.26961266602115E-36   0.00000000000000E+00   2.01018437841592E-15   0.00000000000000E+00
      0.00000000000000E+00   0.00000000000000E+00   0.00000000000000E+00  -1.08938071284436E-15  -3.17396920581166E-17
     -1.12112040490248E-15  -1.54694571189382E-15
      1.84986984053333E-01
      0.00000000000000E+00   0.00000000000000E+00   0.00000000000000E+00   0.00000000000000E+00  -2.33897713308475E-04
      0.00000000000000E+00  -2.33897713308475E-04  -2.81074562963974E-16   4.62467460133333E-01   4.62467460133333E-01
      0.00000000000000E+00   0.00000000000000E+00   2.33897713307959E-04   0.00000000000000E+00   2.33897713307959E-04
     -1.12439853635910E-16   3.00000000000000E+00   3.00000000000000E+00   0.00000000000000E+00   0.00000000000000E+00
     -9.25574013342758E-36   9.25574013342758E-36   0.00000000000000E+00   1.96020315425786E-15   0.00000000000000E+00
      0.00000000000000E+00   0.00000000000000E+00   0.00000000000000E+00  -1.32315654990490E-15  -3.93883256906444E-17
     -1.36254487559555E-15  -1.52740545678643E-15
      2.74088544270578E-01
      0.00000000000000E+00   0.00000000000000E+00   0.00000000000000E+00   0.00000000000000E+00  -2.76787830920896E-04
      0.00000000000000E+00  -2.76787830920896E-04  -2.88748393947367E-16   6.85221360676444E-01   6.85221360676444E-01
      0.00000000000000E+00   0.00000000000000E+00   2.76787830921215E-04   0.00000000000000E+00   2.76787830921215E-04
     -5.89851412219535E-17   3.00000000000000E+00   3.00000000000000E+00   0.00000000000000E+00   0.00000000000000E+00
     -9.08265060928865E-36   9.08265060928865E-36   0.00000000000000E+00   1.89609812638443E-15   0.00000000000000E+00
      0.00000000000000E+00   0.00000000000000E+00   0.00000000000000E+00  -1.52975985013440E-15  -4.73439716410224E-17
     -1.57710382177542E-15  -1.51075222147657E-15
      3.74088544270578E-01
      0.00000000000000E+00   0.00000000000000E+00   0.00000000000000E+00   0.00000000000000E+00  -3.05078336134481E-04
      0.00000000000000E+00  -3.05078336134481E-04  -2.95661765138333E-16   9.35221360676444E-01   9.35221360676444E-01
      0.00000000000000E+00   0.00000000000000E+00   3.05078336136534E-04   0.00000000000000E+00   3.05078336136534E-04
      6.74746309205983E-18   3.00000000000000E+00   3.00000000000000E+00   0.00000000000000E+00   0.00000000000000E+00
     -9.29398931412640E-36   9.29398931412640E-36   0.00000000000000E+00   1.83412358004337E-15   0.00000000000000E+00
      0.00000000000000E+00   0.00000000000000E+00   0.00000000000000E+00  -1.75940008194752E-15  -5.37309458118405E-17
     -1.81313102775936E-15  -1.50947507605787E-15
      4.74088544270578E-01
      0.00000000000000E+00   0.00000000000000E+00   0.00000000000000E+00   0.00000000000000E+00  -3.23565162290887E-04
      0.00000000000000E+00  -3.23565162290887E-04  -3.01398401592187E-16   1.18522136067644E+00   1.18522136067644E+00
      0.00000000000000E+00   0.00000000000000E+00   3.23565162290628E-04   0.00000000000000E+00   3.23565162290628E-04
      7.72295776968037E-17   3.00000000000000E+00   3.00000000000000E+00   0.00000000000000E+00   0.00000000000000E+00
     -9.31484093365379E-36   9.31484093365379E-36   0.00000000000000E+00   1.78082071454710E-15   0.00000000000000E+00
      0.00000000000000E+00   0.00000000000000E+00   0.00000000000000E+00  -1.98503743011936E-15  -5.85429961191441E-17
     -2.04358042623850E-15  -1.52279936051408E-15
      5.74088544270578E-01
      0.00000000000000E+00   0.00000000000000E+00   0.00000000000000E+00   0.00000000000000E+00  -3.37757766779571E-04
      0.00000000000000E+00  -3.37757766779571E-04  -3.06457593262920E-16   1.43522136067644E+00   1.43522136067644E+00
      0.00000000000000E+00   0.00000000000000E+00   3.37757766787567E-04   0.00000000000000E+00   3.37757766787567E-04
      1.48559125784572E-16   3.00000000000000E+00   3.00000000000000E+00   0.00000000000000E+00   0.00000000000000E+00
     -9.30907170829190E-36   9.30907170829190E-36   0.00000000000000E+00   1.73270585792000E-15   0.00000000000000E+00
      0.00000000000000E+00   0.00000000000000E+00   0.00000000000000E+00  -2.15663761875537E-15  -6.19751467106971E-17
     -2.21861276546607E-15  -1.54284052625035E-15
      6.74088544270578E-01
      0.00000000000000E+00   0.00000000000000E+00   0.00000000000000E+00   0.00000000000000E+00  -3.49822393673202E-04
      0.00000000000000E+00  -3.49822393673202E-04  -3.11099429476189E-16   1.68522136067644E+00   1.68522136067644E+00
      0.00000000000000E+00   0.00000000000000E+00   3.49822393667929E-04   0.00000000000000E+00   3.49822393667929E-04
      2.20007495152030E-16   3.00000000000000E+00   3.00000000000000E+00   0.00000000000000E+00   0.00000000000000E+00
     -9.39035969047679E-36   9.39035969047679E-36   0.00000000000000E+00   1.68719758687113E-15   0.00000000000000E+00
      0.00000000000000E+00   0.00000000000000E+00   0.00000000000000E+00  -2.26157970792205E-15  -6.50690412153489E-17
     -2.32664874913740E-15  -1.56602767296486E-15
      7.74088544270578E-01
      0.00000000000000E+00   0.00000000000000E+00   0.00000000000000E+00   0.00000000000000E+00  -3.60610432800264E-04
      0.00000000000000E+00  -3.60610432800264E-04  -3.15446330453938E-16   1.93522136067644E+00   1.93522136067644E+00
      0.00000000000000E+00   0.00000000000000E+00   3.60610432808653E-04   0.00000000000000E+00   3.60610432808653E-04
      2.91700474999309E-16   3.00000000000000E+00   3.00000000000000E+00   0.00000000000000E+00   0.00000000000000E+00
     -9.37706744181840E-36   9.37706744181840E-36   0.00000000000000E+00   1.64309666356497E-15   0.00000000000000E+00
      0.00000000000000E+00   0.00000000000000E+00   0.00000000000000E+00  -2.39911468431466E-15  -6.77680041467665E-17
     -2.46688268846142E-15  -1.59116462114528E-15
      8.74088544270578E-01
      0.00000000000000E+00   0.00000000000000E+00   0.00000000000000E+00   0.00000000000000E+00  -3.70500238212767E-04
      0.00000000000000E+00  -3.70500238212767E-04  -3.19560259286749E-16   2.18522136067644E+00   2.18522136067644E+00
      0.00000000000000E+00   0.00000000000000E+00   3.70500238220676E-04   0.00000000000000E+00   3.70500238220676E-04
      3.63365843115245E-16   3.00000000000000E+00   3.00000000000000E+00   0.00000000000000E+00   0.00000000000000E+00
     -9.37262959149449E-36   9.37262959149449E-36   0.00000000000000E+00   1.60004550044422E-15   0.00000000000000E+00
      0.00000000000000E+00   0.00000000000000E+00   0.00000000000000E+00  -2.50303747154616E-15  -6.97140149147652E-17
     -2.57275148646092E-15  -1.61756004963563E-15
      9.74088544270578E-01
      0.00000000000000E+00   0.00000000000000E+00   0.00000000000000E+00   0.00000000000000E+00  -3.79702612560308E-04
      0.00000000000000E+00  -3.79702612560308E-04  -3.23479816263289E-16   2.43522136067644E+00   2.43522136067644E+00
      0.00000000000000E+00   0.00000000000000E+00   3.79702612553553E-04   0.00000000000000E+00   3.79702612553553E-04
      4.34728338284805E-16   3.00000000000000E+00   3.00000000000000E+00   0.00000000000000E+00   0.00000000000000E+00
     -9.23515756763653E-36   9.23515756763653E-36   0.00000000000000E+00   1.55793664915376E-15   0.00000000000000E+00
      0.00000000000000E+00   0.00000000000000E+00   0.00000000000000E+00  -2.63661911369711E-15  -7.10463512948278E-17
     -2.70766546499194E-15  -1.64479325718529E-15
      1.00000000000000E+00
      0.00000000000000E+00   0.00000000000000E+00   0.00000000000000E+00   0.00000000000000E+00  -3.81991832179742E-04
      0.00000000000000E+00  -3.81991832179742E-04  -3.24467054325777E-16   2.50000000000000E+00   2.50000000000000E+00
      0.00000000000000E+00   0.00000000000000E+00   3.81991832189737E-04   0.00000000000000E+00   3.81991832189737E-04
      4.53137791895553E-16   3.00000000000000E+00   3.00000000000000E+00   0.00000000000000E+00   0.00000000000000E+00
     -9.26191448842854E-36   9.26191448842854E-36   0.00000000000000E+00   1.54717832348064E-15   0.00000000000000E+00
      0.00000000000000E+00   0.00000000000000E+00   0.00000000000000E+00  -2.63959915616038E-15  -7.13233987425577E-17
     -2.71092255490293E-15  -1.65194995166222E-15
}
