DF-ISE text

Info {
  version   = 1.0
  type      = xyplot
  datasets  = [
    "time"
    "source OuterVoltage" "source InnerVoltage" "source QuasiFermiPotential" "source DisplacementCurrent" "source eCurrent"
    "source hCurrent" "source TotalCurrent" "source Charge" "drain OuterVoltage" "drain InnerVoltage"
    "drain QuasiFermiPotential" "drain DisplacementCurrent" "drain eCurrent" "drain hCurrent" "drain TotalCurrent"
    "drain Charge" "gate OuterVoltage" "gate InnerVoltage" "gate QuasiFermiPotential" "gate DisplacementCurrent"
    "gate eCurrent" "gate hCurrent" "gate TotalCurrent" "gate Charge" "substrate OuterVoltage"
    "substrate InnerVoltage" "substrate QuasiFermiPotential" "substrate DisplacementCurrent" "substrate eCurrent" "substrate hCurrent"
    "substrate TotalCurrent" "substrate Charge" ]
  functions = [
    Time
    OuterVoltage InnerVoltage QuasiFermiPotential DisplacementCurrent eCurrent
    hCurrent TotalCurrent Charge OuterVoltage InnerVoltage
    QuasiFermiPotential DisplacementCurrent eCurrent hCurrent TotalCurrent
    Charge OuterVoltage InnerVoltage QuasiFermiPotential DisplacementCurrent
    eCurrent hCurrent TotalCurrent Charge OuterVoltage
    InnerVoltage QuasiFermiPotential DisplacementCurrent eCurrent hCurrent
    TotalCurrent Charge ]
}

Data {
      0.00000000000000E+00
      0.00000000000000E+00   0.00000000000000E+00   0.00000000000000E+00   0.00000000000000E+00   1.31676306469304E-17
      0.00000000000000E+00   1.31676306469304E-17  -4.33005775422524E-18   0.00000000000000E+00   0.00000000000000E+00
      0.00000000000000E+00   0.00000000000000E+00   1.78168269935460E-16   0.00000000000000E+00   1.78168269935460E-16
     -1.89076809443691E-18   1.00000000000000E+00   1.00000000000000E+00   0.00000000000000E+00   0.00000000000000E+00
     -9.00992664405684E-36   9.00992664405684E-36   0.00000000000000E+00   7.23482938281814E-16   0.00000000000000E+00
      0.00000000000000E+00   0.00000000000000E+00   0.00000000000000E+00  -1.84542345377810E-18  -5.11823802269496E-31
     -1.84542345377861E-18  -7.03117376443531E-16
      1.00000000000000E-02
      0.00000000000000E+00   0.00000000000000E+00   0.00000000000000E+00   0.00000000000000E+00  -8.79113093265824E-06
      0.00000000000000E+00  -8.79113093265824E-06  -5.46861154252932E-18   2.50000000000000E-02   2.50000000000000E-02
      0.00000000000000E+00   0.00000000000000E+00   8.79113093289345E-06   0.00000000000000E+00   8.79113093289345E-06
      2.35926933431541E-18   1.00000000000000E+00   1.00000000000000E+00   0.00000000000000E+00   0.00000000000000E+00
     -8.79200110586353E-36   8.79200110586353E-36   0.00000000000000E+00   7.14992275475596E-16   0.00000000000000E+00
      0.00000000000000E+00   0.00000000000000E+00   0.00000000000000E+00  -3.78970011441657E-16  -6.22527411211972E-18
     -3.85195285553777E-16  -6.97940209567849E-16
      2.46000000000000E-02
      0.00000000000000E+00   0.00000000000000E+00   0.00000000000000E+00   0.00000000000000E+00  -2.01911007509889E-05
      0.00000000000000E+00  -2.01911007509889E-05  -7.09556750543498E-18   6.15000000000000E-02   6.15000000000000E-02
      0.00000000000000E+00   0.00000000000000E+00   2.01911007515466E-05   0.00000000000000E+00   2.01911007515466E-05
      8.61525238732599E-18   1.00000000000000E+00   1.00000000000000E+00   0.00000000000000E+00   0.00000000000000E+00
     -8.71630994666034E-36   8.71630994666034E-36   0.00000000000000E+00   7.02732906616286E-16   0.00000000000000E+00
      0.00000000000000E+00   0.00000000000000E+00   0.00000000000000E+00  -6.11882439153565E-16  -1.24444928607384E-17
     -6.24326932014304E-16  -6.90605306817292E-16
      4.59160000000000E-02
      0.00000000000000E+00   0.00000000000000E+00   0.00000000000000E+00   0.00000000000000E+00  -3.40365912335759E-05
      0.00000000000000E+00  -3.40365912335759E-05  -9.37761119079897E-18   1.14790000000000E-01   1.14790000000000E-01
      0.00000000000000E+00   0.00000000000000E+00   3.40365912348211E-05   0.00000000000000E+00   3.40365912348211E-05
      1.78734613703450E-17   1.00000000000000E+00   1.00000000000000E+00   0.00000000000000E+00   0.00000000000000E+00
     -8.72543306576919E-36   8.72543306576919E-36   0.00000000000000E+00   6.85204306395284E-16   0.00000000000000E+00
      0.00000000000000E+00   0.00000000000000E+00   0.00000000000000E+00  -7.43354250172197E-16  -1.87326770028269E-17
     -7.62086927175024E-16  -6.80485284540831E-16
      7.70373600000000E-02
      0.00000000000000E+00   0.00000000000000E+00   0.00000000000000E+00   0.00000000000000E+00  -4.93553480419787E-05
      0.00000000000000E+00  -4.93553480419787E-05  -1.24639507027644E-17   1.92593400000000E-01   1.92593400000000E-01
      0.00000000000000E+00   0.00000000000000E+00   4.93553480433852E-05   0.00000000000000E+00   4.93553480433852E-05
      3.17273243689796E-17   1.00000000000000E+00   1.00000000000000E+00   0.00000000000000E+00   0.00000000000000E+00
     -8.62500635832406E-36   8.62500635832406E-36   0.00000000000000E+00   6.60676505573955E-16   0.00000000000000E+00
      0.00000000000000E+00   0.00000000000000E+00   0.00000000000000E+00  -8.72754719324289E-16  -2.55353501306865E-17
     -8.98290069454975E-16  -6.67358635093242E-16
      1.21644642666667E-01
      0.00000000000000E+00   0.00000000000000E+00   0.00000000000000E+00   0.00000000000000E+00  -6.39241627373113E-05
      0.00000000000000E+00  -6.39241627373113E-05  -1.62985496636140E-17   3.04111606666667E-01   3.04111606666667E-01
      0.00000000000000E+00   0.00000000000000E+00   6.39241627386907E-05   0.00000000000000E+00   6.39241627386907E-05
      5.26290880358370E-17   1.00000000000000E+00   1.00000000000000E+00   0.00000000000000E+00   0.00000000000000E+00
     -8.51250949226673E-36   8.51250949226673E-36   0.00000000000000E+00   6.28612721970097E-16   0.00000000000000E+00
      0.00000000000000E+00   0.00000000000000E+00   0.00000000000000E+00   1.17199999893752E-13  -3.29094529208836E-17
      1.17167090440831E-13  -6.53275265865583E-16
      1.85581747822222E-01
      0.00000000000000E+00   0.00000000000000E+00   0.00000000000000E+00   0.00000000000000E+00  -7.56142583553684E-05
      0.00000000000000E+00  -7.56142583553684E-05  -2.06258287105152E-17   4.63954369555555E-01   4.63954369555555E-01
      0.00000000000000E+00   0.00000000000000E+00   7.56142583561234E-05   0.00000000000000E+00   7.56142583561234E-05
      8.63792715457810E-17   1.00000000000000E+00   1.00000000000000E+00   0.00000000000000E+00   0.00000000000000E+00
     -8.68671472979336E-36   8.68671472979336E-36   0.00000000000000E+00   5.90891983961462E-16   0.00000000000000E+00
      0.00000000000000E+00   0.00000000000000E+00   0.00000000000000E+00  -1.21592280100549E-15  -4.05649071440243E-17
     -1.25648770814951E-15  -6.46299922669553E-16
      2.75519942407704E-01
      0.00000000000000E+00   0.00000000000000E+00   0.00000000000000E+00   0.00000000000000E+00  -8.47320541018118E-05
      0.00000000000000E+00  -8.47320541018118E-05  -2.53185773089464E-17   6.88799856019259E-01   6.88799856019259E-01
      0.00000000000000E+00   0.00000000000000E+00   8.47320541025658E-05   0.00000000000000E+00   8.47320541025658E-05
      1.39970127464399E-16   1.00000000000000E+00   1.00000000000000E+00   0.00000000000000E+00   0.00000000000000E+00
     -8.65549995043353E-36   8.65549995043353E-36   0.00000000000000E+00   5.50348343099204E-16   0.00000000000000E+00
      0.00000000000000E+00   0.00000000000000E+00   0.00000000000000E+00  -1.45099754018481E-15  -4.80888137510935E-17
     -1.49908635393591E-15  -6.56560840028788E-16
      3.75519942407704E-01
      0.00000000000000E+00   0.00000000000000E+00   0.00000000000000E+00   0.00000000000000E+00  -9.20994820661087E-05
      0.00000000000000E+00  -9.20994820661087E-05  -2.97569440463411E-17   9.38799856019259E-01   9.38799856019259E-01
      0.00000000000000E+00   0.00000000000000E+00   9.20994820665930E-05   0.00000000000000E+00   9.20994820665930E-05
      1.99507140684257E-16   1.00000000000000E+00   1.00000000000000E+00   0.00000000000000E+00   0.00000000000000E+00
     -8.60399649731191E-36   8.60399649731191E-36   0.00000000000000E+00   5.11542275791544E-16   0.00000000000000E+00
      0.00000000000000E+00   0.00000000000000E+00   0.00000000000000E+00  -1.67191729886629E-15  -5.41201801709254E-17
     -1.72603747903722E-15  -6.75050450749465E-16
      4.75519942407704E-01
      0.00000000000000E+00   0.00000000000000E+00   0.00000000000000E+00   0.00000000000000E+00  -9.83637215590416E-05
      0.00000000000000E+00  -9.83637215590416E-05  -3.37450809583380E-17   1.18879985601926E+00   1.18879985601926E+00
      0.00000000000000E+00   0.00000000000000E+00   9.83637215624396E-05   0.00000000000000E+00   9.83637215624396E-05
      2.59073001160512E-16   1.00000000000000E+00   1.00000000000000E+00   0.00000000000000E+00   0.00000000000000E+00
     -8.56935993180474E-36   8.56935993180474E-36   0.00000000000000E+00   4.75180199376775E-16   0.00000000000000E+00
      0.00000000000000E+00   0.00000000000000E+00   0.00000000000000E+00  -1.86345249394768E-15  -5.88276598582755E-17
     -1.92228015380596E-15  -6.96536322627127E-16
      5.75519942407704E-01
      0.00000000000000E+00   0.00000000000000E+00   0.00000000000000E+00   0.00000000000000E+00  -1.04031294115564E-04
      0.00000000000000E+00  -1.04031294115564E-04  -3.74162844338237E-17   1.43879985601926E+00   1.43879985601926E+00
      0.00000000000000E+00   0.00000000000000E+00   1.04031294117659E-04   0.00000000000000E+00   1.04031294117659E-04
      3.18292804718188E-16   1.00000000000000E+00   1.00000000000000E+00   0.00000000000000E+00   0.00000000000000E+00
     -8.58609431299411E-36   8.58609431299411E-36   0.00000000000000E+00   4.39989164487673E-16   0.00000000000000E+00
      0.00000000000000E+00   0.00000000000000E+00   0.00000000000000E+00  -2.02931258371934E-15  -6.24413394295050E-17
     -2.09175392314885E-15  -7.19234464326670E-16
      6.75519942407704E-01
      0.00000000000000E+00   0.00000000000000E+00   0.00000000000000E+00   0.00000000000000E+00  -1.09302100510008E-04
      0.00000000000000E+00  -1.09302100510008E-04  -4.08382021873506E-17   1.68879985601926E+00   1.68879985601926E+00
      0.00000000000000E+00   0.00000000000000E+00   1.09302100514131E-04   0.00000000000000E+00   1.09302100514131E-04
      3.77116767254361E-16   1.00000000000000E+00   1.00000000000000E+00   0.00000000000000E+00   0.00000000000000E+00
     -8.50305144270643E-36   8.50305144270643E-36   0.00000000000000E+00   4.05600142747200E-16   0.00000000000000E+00
      0.00000000000000E+00   0.00000000000000E+00   0.00000000000000E+00  -2.17153373882219E-15  -6.52582402891635E-17
     -2.23679197911135E-15  -7.42670029399992E-16
      7.75519942407704E-01
      0.00000000000000E+00   0.00000000000000E+00   0.00000000000000E+00   0.00000000000000E+00  -1.14280626560227E-04
      0.00000000000000E+00  -1.14280626560227E-04  -4.40550599342429E-17   1.93879985601926E+00   1.93879985601926E+00
      0.00000000000000E+00   0.00000000000000E+00   1.14280626562851E-04   0.00000000000000E+00   1.14280626562851E-04
      4.35507611384927E-16   1.00000000000000E+00   1.00000000000000E+00   0.00000000000000E+00   0.00000000000000E+00
     -8.60861221230771E-36   8.60861221230771E-36   0.00000000000000E+00   3.71862041780339E-16   0.00000000000000E+00
      0.00000000000000E+00   0.00000000000000E+00   0.00000000000000E+00  -2.29235292662709E-15  -6.79393727541297E-17
     -2.36029229938122E-15  -7.66622356744168E-16
      8.75519942407704E-01
      0.00000000000000E+00   0.00000000000000E+00   0.00000000000000E+00   0.00000000000000E+00  -1.19036538709380E-04
      0.00000000000000E+00  -1.19036538709380E-04  -4.71012435413793E-17   2.18879985601926E+00   2.18879985601926E+00
      0.00000000000000E+00   0.00000000000000E+00   1.19036538712943E-04   0.00000000000000E+00   1.19036538712943E-04
      4.93393459545305E-16   1.00000000000000E+00   1.00000000000000E+00   0.00000000000000E+00   0.00000000000000E+00
     -8.52407410603064E-36   8.52407410603064E-36   0.00000000000000E+00   3.38647887571562E-16   0.00000000000000E+00
      0.00000000000000E+00   0.00000000000000E+00   0.00000000000000E+00  -2.40916878838535E-15  -7.02840655107060E-17
     -2.47945285389606E-15  -7.90868148462406E-16
      9.75519942407704E-01
      0.00000000000000E+00   0.00000000000000E+00   0.00000000000000E+00   0.00000000000000E+00  -1.23608799079436E-04
      0.00000000000000E+00  -1.23608799079436E-04  -5.00001600863519E-17   2.43879985601926E+00   2.43879985601926E+00
      0.00000000000000E+00   0.00000000000000E+00   1.23608799080526E-04   0.00000000000000E+00   1.23608799080526E-04
      5.50776790915220E-16   1.00000000000000E+00   1.00000000000000E+00   0.00000000000000E+00   0.00000000000000E+00
     -8.72465460439628E-36   8.72465460439628E-36   0.00000000000000E+00   3.05933368577209E-16   0.00000000000000E+00
      0.00000000000000E+00   0.00000000000000E+00   0.00000000000000E+00  -2.51358104184017E-15  -7.20168135087133E-17
     -2.58559785534889E-15  -8.15370832441901E-16
      1.00000000000000E+00
      0.00000000000000E+00   0.00000000000000E+00   0.00000000000000E+00   0.00000000000000E+00  -1.24704505468372E-04
      0.00000000000000E+00  -1.24704505468372E-04  -5.06899552993876E-17   2.50000000000000E+00   2.50000000000000E+00
      0.00000000000000E+00   0.00000000000000E+00   1.24704505473692E-04   0.00000000000000E+00   1.24704505473692E-04
      5.64743367213710E-16   1.00000000000000E+00   1.00000000000000E+00   0.00000000000000E+00   0.00000000000000E+00
     -8.71516052365209E-36   8.71516052365209E-36   0.00000000000000E+00   2.97990964964307E-16   0.00000000000000E+00
      0.00000000000000E+00   0.00000000000000E+00   0.00000000000000E+00  -2.53512275392925E-15  -7.23559631125944E-17
     -2.60747871704185E-15  -8.21392077083628E-16
}
