DF-ISE text

Info {
  version   = 1.0
  type      = xyplot
  datasets  = [
    "time"
    "source OuterVoltage" "source InnerVoltage" "source QuasiFermiPotential" "source DisplacementCurrent" "source eCurrent"
    "source hCurrent" "source TotalCurrent" "source Charge" "drain OuterVoltage" "drain InnerVoltage"
    "drain QuasiFermiPotential" "drain DisplacementCurrent" "drain eCurrent" "drain hCurrent" "drain TotalCurrent"
    "drain Charge" "gate OuterVoltage" "gate InnerVoltage" "gate QuasiFermiPotential" "gate DisplacementCurrent"
    "gate eCurrent" "gate hCurrent" "gate TotalCurrent" "gate Charge" "substrate OuterVoltage"
    "substrate InnerVoltage" "substrate QuasiFermiPotential" "substrate DisplacementCurrent" "substrate eCurrent" "substrate hCurrent"
    "substrate TotalCurrent" "substrate Charge" ]
  functions = [
    Time
    OuterVoltage InnerVoltage QuasiFermiPotential DisplacementCurrent eCurrent
    hCurrent TotalCurrent Charge OuterVoltage InnerVoltage
    QuasiFermiPotential DisplacementCurrent eCurrent hCurrent TotalCurrent
    Charge OuterVoltage InnerVoltage QuasiFermiPotential DisplacementCurrent
    eCurrent hCurrent TotalCurrent Charge OuterVoltage
    InnerVoltage QuasiFermiPotential DisplacementCurrent eCurrent hCurrent
    TotalCurrent Charge ]
}

Data {
      0.00000000000000E+00
      0.00000000000000E+00   0.00000000000000E+00   0.00000000000000E+00   0.00000000000000E+00  -3.03760208092961E-17
      0.00000000000000E+00  -3.03760208092961E-17   7.71530066410036E-17   0.00000000000000E+00   0.00000000000000E+00
      0.00000000000000E+00   0.00000000000000E+00   3.33869559945203E-16   0.00000000000000E+00   3.33869559945203E-16
      7.84223810509511E-17   0.00000000000000E+00   0.00000000000000E+00   0.00000000000000E+00   0.00000000000000E+00
      4.08810579265096E-36  -4.08810579265096E-36   0.00000000000000E+00   7.63911686817040E-17   0.00000000000000E+00
      0.00000000000000E+00   0.00000000000000E+00   0.00000000000000E+00   3.37528486859880E-19   9.45272320362661E-32
      3.37528486859974E-19  -2.33949259087719E-16
      1.00000000000000E-02
      0.00000000000000E+00   0.00000000000000E+00   0.00000000000000E+00   0.00000000000000E+00  -9.78660648134685E-07
      0.00000000000000E+00  -9.78660648134685E-07   7.64323441004957E-17   2.50000000000000E-02   2.50000000000000E-02
      0.00000000000000E+00   0.00000000000000E+00   9.78660648767289E-07   0.00000000000000E+00   9.78660648767289E-07
      8.24013654006742E-17   0.00000000000000E+00   0.00000000000000E+00   0.00000000000000E+00   0.00000000000000E+00
      4.29602077001260E-36  -4.29602077001260E-36   0.00000000000000E+00   7.00024716661372E-17   0.00000000000000E+00
      0.00000000000000E+00   0.00000000000000E+00   0.00000000000000E+00  -3.40526326759415E-16  -6.19924881979482E-18
     -3.46725575579210E-16  -2.31025288136492E-16
      2.46000000000000E-02
      0.00000000000000E+00   0.00000000000000E+00   0.00000000000000E+00   0.00000000000000E+00  -1.88741641594958E-06
      0.00000000000000E+00  -1.88741641594958E-06   7.55330945312451E-17   6.15000000000000E-02   6.15000000000000E-02
      0.00000000000000E+00   0.00000000000000E+00   1.88741641678894E-06   0.00000000000000E+00   1.88741641678894E-06
      8.85129013970712E-17   0.00000000000000E+00   0.00000000000000E+00   0.00000000000000E+00   0.00000000000000E+00
      4.44096812417238E-36  -4.44096812417238E-36   0.00000000000000E+00   6.16465233030335E-17   0.00000000000000E+00
      0.00000000000000E+00   0.00000000000000E+00   0.00000000000000E+00  -5.24762628731572E-16  -1.21191897055161E-17
     -5.36881818437088E-16  -2.28184142689957E-16
      4.59160000000000E-02
      0.00000000000000E+00   0.00000000000000E+00   0.00000000000000E+00   0.00000000000000E+00  -2.58855727516821E-06
      0.00000000000000E+00  -2.58855727516821E-06   7.44825040608046E-17   1.14790000000000E-01   1.14790000000000E-01
      0.00000000000000E+00   0.00000000000000E+00   2.58855727524557E-06   0.00000000000000E+00   2.58855727524557E-06
      9.82537245234140E-17   0.00000000000000E+00   0.00000000000000E+00   0.00000000000000E+00   0.00000000000000E+00
      4.35400923614860E-36  -4.35400923614860E-36   0.00000000000000E+00   5.15121329944912E-17   0.00000000000000E+00
      0.00000000000000E+00   0.00000000000000E+00   0.00000000000000E+00  -6.35814910063750E-16  -1.76531197753183E-17
     -6.53468029839068E-16  -2.27184597151377E-16
      7.67531466666667E-02
      0.00000000000000E+00   0.00000000000000E+00   0.00000000000000E+00   0.00000000000000E+00  -3.23965292771371E-06
      0.00000000000000E+00  -3.23965292771371E-06   7.32068399687760E-17   1.91882866666667E-01   1.91882866666667E-01
      0.00000000000000E+00   0.00000000000000E+00   3.23965292714625E-06   0.00000000000000E+00   3.23965292714625E-06
      1.13895988111515E-16   0.00000000000000E+00   0.00000000000000E+00   0.00000000000000E+00   0.00000000000000E+00
      4.60224449177354E-36  -4.60224449177354E-36   0.00000000000000E+00   3.92947427196346E-17   0.00000000000000E+00
      0.00000000000000E+00   0.00000000000000E+00   0.00000000000000E+00  -7.32209568303708E-16  -2.32441413504655E-17
     -7.55453709654173E-16  -2.29984080024244E-16
      1.20953056888889E-01
      0.00000000000000E+00   0.00000000000000E+00   0.00000000000000E+00   0.00000000000000E+00  -4.08629125068162E-06
      0.00000000000000E+00  -4.08629125068162E-06   7.15270789995968E-17   3.02382642222222E-01   3.02382642222222E-01
      0.00000000000000E+00   0.00000000000000E+00   4.08629125251760E-06   0.00000000000000E+00   4.08629125251760E-06
      1.37844660295869E-16   0.00000000000000E+00   0.00000000000000E+00   0.00000000000000E+00   0.00000000000000E+00
      4.33875167749442E-36  -4.33875167749442E-36   0.00000000000000E+00   2.32756583566325E-17   0.00000000000000E+00
      0.00000000000000E+00   0.00000000000000E+00   0.00000000000000E+00   3.73420013921680E-15  -2.94143506848064E-17
      3.70478578853199E-15  -2.37180031694523E-16
      1.83716929404444E-01
      0.00000000000000E+00   0.00000000000000E+00   0.00000000000000E+00   0.00000000000000E+00  -5.28696485642767E-06
      0.00000000000000E+00  -5.28696485642767E-06   6.92984742235548E-17   4.59292323511111E-01   4.59292323511111E-01
      0.00000000000000E+00   0.00000000000000E+00   5.28696485756690E-06   0.00000000000000E+00   5.28696485756690E-06
      1.72584108111296E-16   0.00000000000000E+00   0.00000000000000E+00   0.00000000000000E+00   0.00000000000000E+00
      4.27098481639857E-36  -4.27098481639857E-36   0.00000000000000E+00   1.53548453307888E-18   0.00000000000000E+00
      0.00000000000000E+00   0.00000000000000E+00   0.00000000000000E+00  -7.48043543342696E-16  -3.62510183467591E-17
     -7.84294561689455E-16  -2.49317555268151E-16
      2.72841628376533E-01
      0.00000000000000E+00   0.00000000000000E+00   0.00000000000000E+00   0.00000000000000E+00  -7.06239563468647E-06
      0.00000000000000E+00  -7.06239563468647E-06   6.63673624436964E-17   6.82104070941333E-01   6.82104070941333E-01
      0.00000000000000E+00   0.00000000000000E+00   7.06239563579988E-06   0.00000000000000E+00   7.06239563579988E-06
      2.22048000981512E-16   0.00000000000000E+00   0.00000000000000E+00   0.00000000000000E+00   0.00000000000000E+00
      4.29264732706707E-36  -4.29264732706707E-36   0.00000000000000E+00  -2.85146537178713E-17   0.00000000000000E+00
      0.00000000000000E+00   0.00000000000000E+00   0.00000000000000E+00  -1.23890187790033E-15  -4.37297104818113E-17
     -1.28263158838214E-15  -2.67778833734896E-16
      3.72841628376533E-01
      0.00000000000000E+00   0.00000000000000E+00   0.00000000000000E+00   0.00000000000000E+00  -9.17371918186496E-06
      0.00000000000000E+00  -9.17371918186496E-06   6.33497486212252E-17   9.32104070941333E-01   9.32104070941333E-01
      0.00000000000000E+00   0.00000000000000E+00   9.17371918315336E-06   0.00000000000000E+00   9.17371918315336E-06
      2.77694972359475E-16   0.00000000000000E+00   0.00000000000000E+00   0.00000000000000E+00   0.00000000000000E+00
      4.43017604433693E-36  -4.43017604433693E-36   0.00000000000000E+00  -6.16607428277062E-17   0.00000000000000E+00
      0.00000000000000E+00   0.00000000000000E+00   0.00000000000000E+00  -5.87379255679734E-16  -5.02459410996555E-17
     -6.37625196779389E-16  -2.89532890020985E-16
      4.72841628376533E-01
      0.00000000000000E+00   0.00000000000000E+00   0.00000000000000E+00   0.00000000000000E+00  -1.14005953227946E-05
      0.00000000000000E+00  -1.14005953227946E-05   6.05775628164815E-17   1.18210407094133E+00   1.18210407094133E+00
      0.00000000000000E+00   0.00000000000000E+00   1.14005953261655E-05   0.00000000000000E+00   1.14005953261655E-05
      3.33365854730571E-16   0.00000000000000E+00   0.00000000000000E+00   0.00000000000000E+00   0.00000000000000E+00
      4.14800272766929E-36  -4.14800272766929E-36   0.00000000000000E+00  -9.43698630802014E-17   0.00000000000000E+00
      0.00000000000000E+00   0.00000000000000E+00   0.00000000000000E+00  -1.68693666406726E-15  -5.53650768529886E-17
     -1.74230174092025E-15  -3.12053918679342E-16
      5.72841628376533E-01
      0.00000000000000E+00   0.00000000000000E+00   0.00000000000000E+00   0.00000000000000E+00  -1.37236863282451E-05
      0.00000000000000E+00  -1.37236863282451E-05   5.80151968930891E-17   1.43210407094133E+00   1.43210407094133E+00
      0.00000000000000E+00   0.00000000000000E+00   1.37236863319026E-05   0.00000000000000E+00   1.37236863319026E-05
      3.88891629019399E-16   0.00000000000000E+00   0.00000000000000E+00   0.00000000000000E+00   0.00000000000000E+00
      4.38476952863556E-36  -4.38476952863556E-36   0.00000000000000E+00  -1.26674223816937E-16   0.00000000000000E+00
      0.00000000000000E+00   0.00000000000000E+00   0.00000000000000E+00  -1.87664114367248E-15  -5.97181215856021E-17
     -1.93635926525808E-15  -3.35115239681537E-16
      6.72841628376533E-01
      0.00000000000000E+00   0.00000000000000E+00   0.00000000000000E+00   0.00000000000000E+00  -1.61234870959915E-05
      0.00000000000000E+00  -1.61234870959915E-05   5.56319004052005E-17   1.68210407094133E+00   1.68210407094133E+00
      0.00000000000000E+00   0.00000000000000E+00   1.61234870968521E-05   0.00000000000000E+00   1.61234870968521E-05
      4.44151994821215E-16   0.00000000000000E+00   0.00000000000000E+00   0.00000000000000E+00   0.00000000000000E+00
      4.38363878513537E-36  -4.38363878513537E-36   0.00000000000000E+00  -1.58571980000524E-16   0.00000000000000E+00
      0.00000000000000E+00   0.00000000000000E+00   0.00000000000000E+00  -2.03008817799037E-15  -6.30894655120759E-17
     -2.09317764350245E-15  -3.58578597440378E-16
      7.72841628376533E-01
      0.00000000000000E+00   0.00000000000000E+00   0.00000000000000E+00   0.00000000000000E+00  -1.85839563158167E-05
      0.00000000000000E+00  -1.85839563158167E-05   5.34011041317598E-17   1.93210407094133E+00   1.93210407094133E+00
      0.00000000000000E+00   0.00000000000000E+00   1.85839563152220E-05   0.00000000000000E+00   1.85839563152220E-05
      4.99078460211263E-16   0.00000000000000E+00   0.00000000000000E+00   0.00000000000000E+00   0.00000000000000E+00
      4.41316417380202E-36  -4.41316417380202E-36   0.00000000000000E+00  -1.90069375463606E-16   0.00000000000000E+00
      0.00000000000000E+00   0.00000000000000E+00   0.00000000000000E+00  -2.17238214984523E-15  -6.59573360494427E-17
     -2.23833948589467E-15  -3.82351293177381E-16
      8.72841628376533E-01
      0.00000000000000E+00   0.00000000000000E+00   0.00000000000000E+00   0.00000000000000E+00  -2.10924534136341E-05
      0.00000000000000E+00  -2.10924534136341E-05   5.13001247002364E-17   2.18210407094133E+00   2.18210407094133E+00
      0.00000000000000E+00   0.00000000000000E+00   2.10924534189972E-05   0.00000000000000E+00   2.10924534189972E-05
      5.53693095633026E-16   0.00000000000000E+00   0.00000000000000E+00   0.00000000000000E+00   0.00000000000000E+00
      4.55035709343494E-36  -4.55035709343494E-36   0.00000000000000E+00  -2.21221472602106E-16   0.00000000000000E+00
      0.00000000000000E+00   0.00000000000000E+00   0.00000000000000E+00  -2.04840695482970E-15  -6.87215676955656E-17
     -2.11712852252527E-15  -4.06377640784943E-16
      9.72841628376533E-01
      0.00000000000000E+00   0.00000000000000E+00   0.00000000000000E+00   0.00000000000000E+00  -2.36423087623932E-05
      0.00000000000000E+00  -2.36423087623932E-05   4.93087923333709E-17   2.43210407094133E+00   2.43210407094133E+00
      0.00000000000000E+00   0.00000000000000E+00   2.36423087665382E-05   0.00000000000000E+00   2.36423087665382E-05
      6.08082897985106E-16   0.00000000000000E+00   0.00000000000000E+00   0.00000000000000E+00   0.00000000000000E+00
      4.31038458510100E-36  -4.31038458510100E-36   0.00000000000000E+00  -2.52122803858397E-16   0.00000000000000E+00
      0.00000000000000E+00   0.00000000000000E+00   0.00000000000000E+00  -2.34280594165799E-15  -7.11012491292021E-17
     -2.41390719078719E-15  -4.30622376953062E-16
      1.00000000000000E+00
      0.00000000000000E+00   0.00000000000000E+00   0.00000000000000E+00   0.00000000000000E+00  -2.43409735948550E-05
      0.00000000000000E+00  -2.43409735948550E-05   4.87847799882690E-17   2.50000000000000E+00   2.50000000000000E+00
      0.00000000000000E+00   0.00000000000000E+00   2.43409735967258E-05   0.00000000000000E+00   2.43409735967258E-05
      6.22825379130899E-16   0.00000000000000E+00   0.00000000000000E+00   0.00000000000000E+00   0.00000000000000E+00
      4.30558925498660E-36  -4.30558925498660E-36   0.00000000000000E+00  -2.60481830261263E-16   0.00000000000000E+00
      0.00000000000000E+00   0.00000000000000E+00   0.00000000000000E+00  -2.43637300432234E-15  -7.16483649519116E-17
     -2.50802136927425E-15  -4.37241382345006E-16
}
