DF-ISE text

Info {
  version   = 1.0
  type      = xyplot
  datasets  = [
    "time"
    "source OuterVoltage" "source InnerVoltage" "source QuasiFermiPotential" "source DisplacementCurrent" "source eCurrent"
    "source hCurrent" "source TotalCurrent" "source Charge" "drain OuterVoltage" "drain InnerVoltage"
    "drain QuasiFermiPotential" "drain DisplacementCurrent" "drain eCurrent" "drain hCurrent" "drain TotalCurrent"
    "drain Charge" "gate OuterVoltage" "gate InnerVoltage" "gate QuasiFermiPotential" "gate DisplacementCurrent"
    "gate eCurrent" "gate hCurrent" "gate TotalCurrent" "gate Charge" "substrate OuterVoltage"
    "substrate InnerVoltage" "substrate QuasiFermiPotential" "substrate DisplacementCurrent" "substrate eCurrent" "substrate hCurrent"
    "substrate TotalCurrent" "substrate Charge" ]
  functions = [
    Time
    OuterVoltage InnerVoltage QuasiFermiPotential DisplacementCurrent eCurrent
    hCurrent TotalCurrent Charge OuterVoltage InnerVoltage
    QuasiFermiPotential DisplacementCurrent eCurrent hCurrent TotalCurrent
    Charge OuterVoltage InnerVoltage QuasiFermiPotential DisplacementCurrent
    eCurrent hCurrent TotalCurrent Charge OuterVoltage
    InnerVoltage QuasiFermiPotential DisplacementCurrent eCurrent hCurrent
    TotalCurrent Charge ]
}

Data {
      0.00000000000000E+00
      0.00000000000000E+00   0.00000000000000E+00   0.00000000000000E+00   0.00000000000000E+00  -3.09338650226718E-17
      0.00000000000000E+00  -3.09338650226718E-17   8.70366640487366E-17   0.00000000000000E+00   0.00000000000000E+00
      0.00000000000000E+00   0.00000000000000E+00   8.16338176658856E-16   0.00000000000000E+00   8.16338176658856E-16
      9.02553703062778E-17   0.00000000000000E+00   0.00000000000000E+00   0.00000000000000E+00   0.00000000000000E+00
     -3.30825937819319E-36   3.30825937819319E-36   0.00000000000000E+00   6.63056240757958E-17   0.00000000000000E+00
      0.00000000000000E+00   0.00000000000000E+00   0.00000000000000E+00   1.25014237681191E-19   1.06334848346021E-31
      1.25014237681297E-19  -2.43540726116023E-16
      1.00000000000000E-02
      0.00000000000000E+00   0.00000000000000E+00   0.00000000000000E+00   0.00000000000000E+00  -1.28294801992656E-06
      0.00000000000000E+00  -1.28294801992656E-06   8.62217933383554E-17   2.50000000000000E-02   2.50000000000000E-02
      0.00000000000000E+00   0.00000000000000E+00   1.28294801981007E-06   0.00000000000000E+00   1.28294801981007E-06
      9.49683991461805E-17   0.00000000000000E+00   0.00000000000000E+00   0.00000000000000E+00   0.00000000000000E+00
     -3.21706062427170E-36   3.21706062427170E-36   0.00000000000000E+00   5.95638585065829E-17   0.00000000000000E+00
      0.00000000000000E+00   0.00000000000000E+00   0.00000000000000E+00  -3.58762902936901E-16  -6.06911674108296E-18
     -3.64832019677984E-16  -2.40885756672942E-16
      2.46000000000000E-02
      0.00000000000000E+00   0.00000000000000E+00   0.00000000000000E+00   0.00000000000000E+00  -2.48285149562604E-06
      0.00000000000000E+00  -2.48285149562604E-06   8.51944920772707E-17   6.15000000000000E-02   6.15000000000000E-02
      0.00000000000000E+00   0.00000000000000E+00   2.48285149839992E-06   0.00000000000000E+00   2.48285149839992E-06
      1.02139642246199E-16   0.00000000000000E+00   0.00000000000000E+00   0.00000000000000E+00   0.00000000000000E+00
     -3.11105294451081E-36   3.11105294451081E-36   0.00000000000000E+00   5.05324114394220E-17   0.00000000000000E+00
      0.00000000000000E+00   0.00000000000000E+00   0.00000000000000E+00  -5.67282033338270E-16  -1.19028433996233E-17
     -5.79184876737894E-16  -2.38273736613292E-16
      4.59160000000000E-02
      0.00000000000000E+00   0.00000000000000E+00   0.00000000000000E+00   0.00000000000000E+00  -3.44677217499893E-06
      0.00000000000000E+00  -3.44677217499893E-06   8.39742978045439E-17   1.14790000000000E-01   1.14790000000000E-01
      0.00000000000000E+00   0.00000000000000E+00   3.44677217544248E-06   0.00000000000000E+00   3.44677217544248E-06
      1.13434800061875E-16   0.00000000000000E+00   0.00000000000000E+00   0.00000000000000E+00   0.00000000000000E+00
     -3.12913800058719E-36   3.12913800058719E-36   0.00000000000000E+00   3.91107058467016E-17   0.00000000000000E+00
      0.00000000000000E+00   0.00000000000000E+00   0.00000000000000E+00  -6.65523693638924E-16  -1.73979276393207E-17
     -6.82921621278245E-16  -2.37329373512446E-16
      7.67531466666667E-02
      0.00000000000000E+00   0.00000000000000E+00   0.00000000000000E+00   0.00000000000000E+00  -4.39858422776680E-06
      0.00000000000000E+00  -4.39858422776680E-06   8.24778229144577E-17   1.91882866666667E-01   1.91882866666667E-01
      0.00000000000000E+00   0.00000000000000E+00   4.39858423187858E-06   0.00000000000000E+00   4.39858423187858E-06
      1.31511713848588E-16   0.00000000000000E+00   0.00000000000000E+00   0.00000000000000E+00   0.00000000000000E+00
     -3.02028243898975E-36   3.02028243898975E-36   0.00000000000000E+00   2.47334718193547E-17   0.00000000000000E+00
      0.00000000000000E+00   0.00000000000000E+00   0.00000000000000E+00  -7.67964772514136E-16  -2.30211084913040E-17
     -7.90985881005440E-16  -2.40115066357602E-16
      1.20953056888889E-01
      0.00000000000000E+00   0.00000000000000E+00   0.00000000000000E+00   0.00000000000000E+00  -5.66519898119927E-06
      0.00000000000000E+00  -5.66519898119927E-06   8.05187912229154E-17   3.02382642222222E-01   3.02382642222222E-01
      0.00000000000000E+00   0.00000000000000E+00   5.66519897866575E-06   0.00000000000000E+00   5.66519897866575E-06
      1.59512038767917E-16   0.00000000000000E+00   0.00000000000000E+00   0.00000000000000E+00   0.00000000000000E+00
     -3.18797543389748E-36   3.18797543389748E-36   0.00000000000000E+00   5.47230732450151E-18   0.00000000000000E+00
      0.00000000000000E+00   0.00000000000000E+00   0.00000000000000E+00  -8.97022685807328E-16  -2.92649387778988E-17
     -9.26287624585227E-16  -2.47730806307716E-16
      1.83716929404444E-01
      0.00000000000000E+00   0.00000000000000E+00   0.00000000000000E+00   0.00000000000000E+00  -7.48964346520759E-06
      0.00000000000000E+00  -7.48964346520759E-06   7.79482181678366E-17   4.59292323511111E-01   4.59292323511111E-01
      0.00000000000000E+00   0.00000000000000E+00   7.48964346957369E-06   0.00000000000000E+00   7.48964346957369E-06
      2.00990229302448E-16   0.00000000000000E+00   0.00000000000000E+00   0.00000000000000E+00   0.00000000000000E+00
     -3.28028832880297E-36   3.28028832880297E-36   0.00000000000000E+00  -2.09889238494370E-17   0.00000000000000E+00
      0.00000000000000E+00   0.00000000000000E+00   0.00000000000000E+00  -1.09156811247030E-15  -3.62002814932909E-17
     -1.12776839396359E-15  -2.61364958596765E-16
      2.72004776742993E-01
      0.00000000000000E+00   0.00000000000000E+00   0.00000000000000E+00   0.00000000000000E+00  -1.01788860491934E-05
      0.00000000000000E+00  -1.01788860491934E-05   7.46504099605377E-17   6.80011941857481E-01   6.80011941857481E-01
      0.00000000000000E+00   0.00000000000000E+00   1.01788860480801E-05   0.00000000000000E+00   1.01788860480801E-05
      2.60680710812314E-16   0.00000000000000E+00   0.00000000000000E+00   0.00000000000000E+00   0.00000000000000E+00
     -3.37950801895163E-36   3.37950801895163E-36   0.00000000000000E+00  -5.73903706452000E-17   0.00000000000000E+00
      0.00000000000000E+00   0.00000000000000E+00   0.00000000000000E+00   1.52350632676231E-13  -4.36996473931246E-17
      1.52306933028838E-13  -2.83028921284752E-16
      3.72004776742993E-01
      0.00000000000000E+00   0.00000000000000E+00   0.00000000000000E+00   0.00000000000000E+00  -1.34090292093851E-05
      0.00000000000000E+00  -1.34090292093851E-05   7.12689214407335E-17   9.30011941857481E-01   9.30011941857481E-01
      0.00000000000000E+00   0.00000000000000E+00   1.34090292116646E-05   0.00000000000000E+00   1.34090292116646E-05
      3.28934598343898E-16   0.00000000000000E+00   0.00000000000000E+00   0.00000000000000E+00   0.00000000000000E+00
     -3.29859225582981E-36   3.29859225582981E-36   0.00000000000000E+00  -9.80534501823152E-17   0.00000000000000E+00
      0.00000000000000E+00   0.00000000000000E+00   0.00000000000000E+00  -1.40220074622008E-15  -5.02735845831913E-17
     -1.45247433080327E-15  -3.09135295542493E-16
      4.72004776742993E-01
      0.00000000000000E+00   0.00000000000000E+00   0.00000000000000E+00   0.00000000000000E+00  -1.68025338042358E-05
      0.00000000000000E+00  -1.68025338042358E-05   6.81900122189979E-17   1.18001194185748E+00   1.18001194185748E+00
      0.00000000000000E+00   0.00000000000000E+00   1.68025338033914E-05   0.00000000000000E+00   1.68025338033914E-05
      3.97372810607645E-16   0.00000000000000E+00   0.00000000000000E+00   0.00000000000000E+00   0.00000000000000E+00
     -3.41993410239961E-36   3.41993410239961E-36   0.00000000000000E+00  -1.38287921991314E-16   0.00000000000000E+00
      0.00000000000000E+00   0.00000000000000E+00   0.00000000000000E+00  -1.77307727581026E-15  -5.54887198261763E-17
     -1.82856599563643E-15  -3.36159718177056E-16
      5.72004776742993E-01
      0.00000000000000E+00   0.00000000000000E+00   0.00000000000000E+00   0.00000000000000E+00  -2.03225005109037E-05
      0.00000000000000E+00  -2.03225005109037E-05   6.53565641585515E-17   1.43001194185748E+00   1.43001194185748E+00
      0.00000000000000E+00   0.00000000000000E+00   2.03225005109012E-05   0.00000000000000E+00   2.03225005109012E-05
      4.65837480685313E-16   0.00000000000000E+00   0.00000000000000E+00   0.00000000000000E+00   0.00000000000000E+00
     -3.42691539668774E-36   3.42691539668774E-36   0.00000000000000E+00  -1.78130209331740E-16   0.00000000000000E+00
      0.00000000000000E+00   0.00000000000000E+00   0.00000000000000E+00  -1.95277136797356E-15  -5.97411358269756E-17
     -2.01251250380053E-15  -3.63850847549534E-16
      6.72004776742993E-01
      0.00000000000000E+00   0.00000000000000E+00   0.00000000000000E+00   0.00000000000000E+00  -2.39376117609503E-05
      0.00000000000000E+00  -2.39376117609503E-05   6.27247330917987E-17   1.68001194185748E+00   1.68001194185748E+00
      0.00000000000000E+00   0.00000000000000E+00   2.39376117741841E-05   0.00000000000000E+00   2.39376117741841E-05
      5.34188210299816E-16   0.00000000000000E+00   0.00000000000000E+00   0.00000000000000E+00   0.00000000000000E+00
     -3.38471798593409E-36   3.38471798593409E-36   0.00000000000000E+00  -2.17571686047204E-16   0.00000000000000E+00
      0.00000000000000E+00   0.00000000000000E+00   0.00000000000000E+00  -2.11010191817915E-15  -6.30194115473222E-17
     -2.17312132972647E-15  -3.92033176034611E-16
      7.72004776742993E-01
      0.00000000000000E+00   0.00000000000000E+00   0.00000000000000E+00   0.00000000000000E+00  -2.76197621583375E-05
      0.00000000000000E+00  -2.76197621583375E-05   6.02616530421573E-17   1.93001194185748E+00   1.93001194185748E+00
      0.00000000000000E+00   0.00000000000000E+00   2.76197621567495E-05   0.00000000000000E+00   2.76197621567495E-05
      6.02261975523481E-16   0.00000000000000E+00   0.00000000000000E+00   0.00000000000000E+00   0.00000000000000E+00
     -3.38168680119555E-36   3.38168680119555E-36   0.00000000000000E+00  -2.56554533789770E-16   0.00000000000000E+00
      0.00000000000000E+00   0.00000000000000E+00   0.00000000000000E+00  -2.12352604080556E-15  -6.60717522953727E-17
     -2.18959779310093E-15  -4.20568879429386E-16
      8.72004776742992E-01
      0.00000000000000E+00   0.00000000000000E+00   0.00000000000000E+00   0.00000000000000E+00  -3.13454849335512E-05
      0.00000000000000E+00  -3.13454849335512E-05   5.79425118775530E-17   2.18001194185748E+00   2.18001194185748E+00
      0.00000000000000E+00   0.00000000000000E+00   3.13454849450048E-05   0.00000000000000E+00   3.13454849450048E-05
      6.69848259480856E-16   0.00000000000000E+00   0.00000000000000E+00   0.00000000000000E+00   0.00000000000000E+00
     -3.32495669881893E-36   3.32495669881893E-36   0.00000000000000E+00  -2.94961079619894E-16   0.00000000000000E+00
      0.00000000000000E+00   0.00000000000000E+00   0.00000000000000E+00  -2.35913234123274E-15  -6.88290699939463E-17
     -2.42796141122669E-15  -4.49340758360667E-16
      9.72004776742992E-01
      0.00000000000000E+00   0.00000000000000E+00   0.00000000000000E+00   0.00000000000000E+00  -3.50970410811372E-05
      0.00000000000000E+00  -3.50970410811372E-05   5.57469028742045E-17   2.43001194185748E+00   2.43001194185748E+00
      0.00000000000000E+00   0.00000000000000E+00   3.50970410818946E-05   0.00000000000000E+00   3.50970410818946E-05
      7.36858312721067E-16   0.00000000000000E+00   0.00000000000000E+00   0.00000000000000E+00   0.00000000000000E+00
     -3.39230321934211E-36   3.39230321934211E-36   0.00000000000000E+00  -3.32756564311941E-16   0.00000000000000E+00
      0.00000000000000E+00   0.00000000000000E+00   0.00000000000000E+00  -2.47865464140862E-15  -7.09555387211621E-17
     -2.54961018012979E-15  -4.78274564953248E-16
      1.00000000000000E+00
      0.00000000000000E+00   0.00000000000000E+00   0.00000000000000E+00   0.00000000000000E+00  -3.61516848471007E-05
      0.00000000000000E+00  -3.61516848471007E-05   5.51513959344213E-17   2.50000000000000E+00   2.50000000000000E+00
      0.00000000000000E+00   0.00000000000000E+00   3.61516848504386E-05   0.00000000000000E+00   3.61516848504386E-05
      7.55546678148282E-16   0.00000000000000E+00   0.00000000000000E+00   0.00000000000000E+00   0.00000000000000E+00
     -3.29526319376126E-36   3.29526319376126E-36   0.00000000000000E+00  -3.43258178404230E-16   0.00000000000000E+00
      0.00000000000000E+00   0.00000000000000E+00   0.00000000000000E+00  -2.51044507784009E-15  -7.14526749699753E-17
     -2.58189775281007E-15  -4.86402408709455E-16
}
