DF-ISE text

Info {
  version   = 1.0
  type      = xyplot
  datasets  = [
    "time"
    "source OuterVoltage" "source InnerVoltage" "source QuasiFermiPotential" "source DisplacementCurrent" "source eCurrent"
    "source hCurrent" "source TotalCurrent" "source Charge" "drain OuterVoltage" "drain InnerVoltage"
    "drain QuasiFermiPotential" "drain DisplacementCurrent" "drain eCurrent" "drain hCurrent" "drain TotalCurrent"
    "drain Charge" "gate OuterVoltage" "gate InnerVoltage" "gate QuasiFermiPotential" "gate DisplacementCurrent"
    "gate eCurrent" "gate hCurrent" "gate TotalCurrent" "gate Charge" "substrate OuterVoltage"
    "substrate InnerVoltage" "substrate QuasiFermiPotential" "substrate DisplacementCurrent" "substrate eCurrent" "substrate hCurrent"
    "substrate TotalCurrent" "substrate Charge" ]
  functions = [
    Time
    OuterVoltage InnerVoltage QuasiFermiPotential DisplacementCurrent eCurrent
    hCurrent TotalCurrent Charge OuterVoltage InnerVoltage
    QuasiFermiPotential DisplacementCurrent eCurrent hCurrent TotalCurrent
    Charge OuterVoltage InnerVoltage QuasiFermiPotential DisplacementCurrent
    eCurrent hCurrent TotalCurrent Charge OuterVoltage
    InnerVoltage QuasiFermiPotential DisplacementCurrent eCurrent hCurrent
    TotalCurrent Charge ]
}

Data {
      0.00000000000000E+00
      0.00000000000000E+00   0.00000000000000E+00   0.00000000000000E+00   0.00000000000000E+00   4.25019345570833E-18
      0.00000000000000E+00   4.25019345570833E-18   6.72564950971963E-17   0.00000000000000E+00   0.00000000000000E+00
      0.00000000000000E+00   0.00000000000000E+00  -4.19821744531149E-18   0.00000000000000E+00  -4.19821744531149E-18
      6.78364277030395E-17   0.00000000000000E+00   0.00000000000000E+00   0.00000000000000E+00   0.00000000000000E+00
     -2.74326953836911E-36   2.74326953836911E-36   0.00000000000000E+00   7.97821749364907E-17   0.00000000000000E+00
      0.00000000000000E+00   0.00000000000000E+00   0.00000000000000E+00   3.89413186052971E-20  -5.43682348988341E-30
      3.89413185998603E-20  -2.15217832087122E-16
      0.00000000000000E+00
      0.00000000000000E+00   0.00000000000000E+00   0.00000000000000E+00   0.00000000000000E+00  -1.21516240657412E-17
      0.00000000000000E+00  -1.21516240657412E-17   6.72564963294656E-17   0.00000000000000E+00   0.00000000000000E+00
      0.00000000000000E+00   0.00000000000000E+00  -4.74140354338912E-17   0.00000000000000E+00  -4.74140354338912E-17
      6.78364289319057E-17   0.00000000000000E+00   0.00000000000000E+00   0.00000000000000E+00   0.00000000000000E+00
     -1.91094648314886E-36   1.91094648314886E-36   0.00000000000000E+00   7.97821824946583E-17   0.00000000000000E+00
      0.00000000000000E+00   0.00000000000000E+00   0.00000000000000E+00   1.14806235651022E-19  -1.05635308297680E-30
      1.14806235649966E-19  -2.15217842115055E-16
      1.00000000000000E-01
      0.00000000000000E+00   0.00000000000000E+00   0.00000000000000E+00   0.00000000000000E+00   8.96134436622151E-17
      0.00000000000000E+00   8.96134436622151E-17   6.00648825999855E-17   0.00000000000000E+00   0.00000000000000E+00
      0.00000000000000E+00   0.00000000000000E+00  -5.00865512319143E-17   0.00000000000000E+00  -5.00865512319143E-17
      6.06000301555251E-17   1.00000000000000E-01   1.00000000000000E-01   0.00000000000000E+00   0.00000000000000E+00
     -1.09177726363354E-36   1.09177726363354E-36   0.00000000000000E+00   1.35801993012468E-16   0.00000000000000E+00
      0.00000000000000E+00   0.00000000000000E+00   0.00000000000000E+00   4.11882165176251E-18   2.76137215137802E-28
      4.11882165203865E-18  -2.54530025465837E-16
      2.00000000000000E-01
      0.00000000000000E+00   0.00000000000000E+00   0.00000000000000E+00   0.00000000000000E+00  -2.05707162530614E-17
      0.00000000000000E+00  -2.05707162530614E-17   5.34280443503108E-17   0.00000000000000E+00   0.00000000000000E+00
      0.00000000000000E+00   0.00000000000000E+00  -2.08455438014461E-17   0.00000000000000E+00  -2.08455438014461E-17
      5.39520890104134E-17   2.00000000000000E-01   2.00000000000000E-01   0.00000000000000E+00   0.00000000000000E+00
     -1.27200371972107E-36   1.27200371972107E-36   0.00000000000000E+00   1.95959758628576E-16   0.00000000000000E+00
      0.00000000000000E+00   0.00000000000000E+00   0.00000000000000E+00   1.47876899203512E-17  -8.19473102831125E-29
      1.47876899202692E-17  -2.99214244763693E-16
      3.00000000000000E-01
      0.00000000000000E+00   0.00000000000000E+00   0.00000000000000E+00   0.00000000000000E+00   2.28088508174929E-17
      0.00000000000000E+00   2.28088508174929E-17   4.70477156085687E-17   0.00000000000000E+00   0.00000000000000E+00
      0.00000000000000E+00   0.00000000000000E+00  -3.28631300311667E-17   0.00000000000000E+00  -3.28631300311667E-17
      4.76180043896262E-17   3.00000000000000E-01   3.00000000000000E-01   0.00000000000000E+00   0.00000000000000E+00
     -9.07914426898051E-37   9.07914426898051E-37   0.00000000000000E+00   2.58602483958515E-16   0.00000000000000E+00
      0.00000000000000E+00   0.00000000000000E+00   0.00000000000000E+00   4.27454336442030E-19   1.08535416024421E-31
      4.27454336442138E-19  -3.47024529215191E-16
      4.00000000000000E-01
      0.00000000000000E+00   0.00000000000000E+00   0.00000000000000E+00   0.00000000000000E+00  -5.60387503582441E-16
      0.00000000000000E+00  -5.60387503582441E-16   4.07911083095925E-17   0.00000000000000E+00   0.00000000000000E+00
      0.00000000000000E+00   0.00000000000000E+00   5.32054205867367E-16   0.00000000000000E+00   5.32054205867367E-16
      4.14739268635615E-17   4.00000000000000E-01   4.00000000000000E-01   0.00000000000000E+00   0.00000000000000E+00
      3.08437678391042E-24  -3.08437678391042E-24   0.00000000000000E+00   3.22868203882105E-16   0.00000000000000E+00
      0.00000000000000E+00   0.00000000000000E+00   0.00000000000000E+00  -1.11247427893068E-18  -3.14593497167608E-28
     -1.11247427924527E-18  -3.96829243310157E-16
      5.00000000000000E-01
      0.00000000000000E+00   0.00000000000000E+00   0.00000000000000E+00   0.00000000000000E+00  -4.50966235406614E-16
      0.00000000000000E+00  -4.50966235406614E-16   3.45937187464986E-17   0.00000000000000E+00   0.00000000000000E+00
      0.00000000000000E+00   0.00000000000000E+00   3.57547098741477E-16   0.00000000000000E+00   3.57547098741477E-16
      3.54560606280628E-17   5.00000000000000E-01   5.00000000000000E-01   0.00000000000000E+00   0.00000000000000E+00
      3.59503344543751E-22  -3.59503344543751E-22   0.00000000000000E+00   3.88266837456243E-16   0.00000000000000E+00
      0.00000000000000E+00   0.00000000000000E+00   0.00000000000000E+00   1.14149874769865E-17  -1.05025871729662E-27
      1.14149874759363E-17  -4.48000782647692E-16
      6.00000000000000E-01
      0.00000000000000E+00   0.00000000000000E+00   0.00000000000000E+00   0.00000000000000E+00   2.19734107377407E-17
      0.00000000000000E+00   2.19734107377407E-17   2.84222538909965E-17   0.00000000000000E+00   0.00000000000000E+00
      0.00000000000000E+00   0.00000000000000E+00  -5.66746899426320E-17   0.00000000000000E+00  -5.66746899426320E-17
      2.95276119660929E-17   6.00000000000000E-01   6.00000000000000E-01   0.00000000000000E+00   0.00000000000000E+00
      2.77350055490833E-28  -2.77350055490833E-28   0.00000000000000E+00   4.54496340474525E-16   0.00000000000000E+00
      0.00000000000000E+00   0.00000000000000E+00   0.00000000000000E+00  -9.27756383618373E-19  -2.21042567159113E-31
     -9.27756383618594E-19  -5.00160103163924E-16
      7.00000000000000E-01
      0.00000000000000E+00   0.00000000000000E+00   0.00000000000000E+00   0.00000000000000E+00   3.99870517924991E-17
      0.00000000000000E+00   3.99870517924991E-17   2.22589190445420E-17   0.00000000000000E+00   0.00000000000000E+00
      0.00000000000000E+00   0.00000000000000E+00   3.40327157492766E-17   0.00000000000000E+00   3.40327157492766E-17
      2.36654401874641E-17   7.00000000000000E-01   7.00000000000000E-01   0.00000000000000E+00   0.00000000000000E+00
      2.76954241424562E-28  -2.76954241424562E-28   0.00000000000000E+00   5.21358286254575E-16   0.00000000000000E+00
      0.00000000000000E+00   0.00000000000000E+00   0.00000000000000E+00  -9.90327671015782E-19   1.05145902080699E-31
     -9.90327671015676E-19  -5.53062451352694E-16
      8.00000000000000E-01
      0.00000000000000E+00   0.00000000000000E+00   0.00000000000000E+00   0.00000000000000E+00   1.80921532034369E-14
      0.00000000000000E+00   1.80921532034369E-14   1.60940727989378E-17   0.00000000000000E+00   0.00000000000000E+00
      0.00000000000000E+00   0.00000000000000E+00  -1.81315786012144E-14   0.00000000000000E+00  -1.81315786012144E-14
      1.78540164654021E-17   8.00000000000000E-01   8.00000000000000E-01   0.00000000000000E+00   0.00000000000000E+00
     -3.73180566719504E-28   3.73180566719504E-28   0.00000000000000E+00   5.88715637017291E-16   0.00000000000000E+00
      0.00000000000000E+00   0.00000000000000E+00   0.00000000000000E+00   2.02722588150341E-14   5.04913079865002E-27
      2.02722588150391E-14  -6.06541290214243E-16
      9.00000000000000E-01
      0.00000000000000E+00   0.00000000000000E+00   0.00000000000000E+00   0.00000000000000E+00   7.67472479333721E-15
      0.00000000000000E+00   7.67472479333721E-15   9.92253852811758E-18   0.00000000000000E+00   0.00000000000000E+00
      0.00000000000000E+00   0.00000000000000E+00  -7.52249808044406E-15   0.00000000000000E+00  -7.52249808044406E-15
      1.20824048254531E-17   9.00000000000000E-01   9.00000000000000E-01   0.00000000000000E+00   0.00000000000000E+00
     -3.73208213933007E-28   3.73208213933007E-28   0.00000000000000E+00   6.56469922899317E-16   0.00000000000000E+00
      0.00000000000000E+00   0.00000000000000E+00   0.00000000000000E+00  -4.65466247234007E-15   1.95700546443649E-27
     -4.65466247233811E-15  -6.60478483596948E-16
      1.00000000000000E+00
      0.00000000000000E+00   0.00000000000000E+00   0.00000000000000E+00   0.00000000000000E+00   3.16727496414111E-15
      0.00000000000000E+00   3.16727496414111E-15   3.74165330571960E-18   0.00000000000000E+00   0.00000000000000E+00
      0.00000000000000E+00   0.00000000000000E+00  -3.23105278036411E-15   0.00000000000000E+00  -3.23105278036411E-15
      6.34262062415209E-18   1.00000000000000E+00   1.00000000000000E+00   0.00000000000000E+00   0.00000000000000E+00
     -3.73245555811741E-28   3.73245555811741E-28   0.00000000000000E+00   7.24548086586980E-16   0.00000000000000E+00
      0.00000000000000E+00   0.00000000000000E+00   0.00000000000000E+00  -1.57404141844966E-12  -1.95993016390292E-28
     -1.57404141844966E-12  -7.14787358586382E-16
}
