DF-ISE text

Info {
  version   = 1.0
  type      = xyplot
  datasets  = [
    "time"
    "source OuterVoltage" "source InnerVoltage" "source QuasiFermiPotential" "source DisplacementCurrent" "source eCurrent"
    "source hCurrent" "source TotalCurrent" "source Charge" "drain OuterVoltage" "drain InnerVoltage"
    "drain QuasiFermiPotential" "drain DisplacementCurrent" "drain eCurrent" "drain hCurrent" "drain TotalCurrent"
    "drain Charge" "gate OuterVoltage" "gate InnerVoltage" "gate QuasiFermiPotential" "gate DisplacementCurrent"
    "gate eCurrent" "gate hCurrent" "gate TotalCurrent" "gate Charge" "substrate OuterVoltage"
    "substrate InnerVoltage" "substrate QuasiFermiPotential" "substrate DisplacementCurrent" "substrate eCurrent" "substrate hCurrent"
    "substrate TotalCurrent" "substrate Charge" ]
  functions = [
    Time
    OuterVoltage InnerVoltage QuasiFermiPotential DisplacementCurrent eCurrent
    hCurrent TotalCurrent Charge OuterVoltage InnerVoltage
    QuasiFermiPotential DisplacementCurrent eCurrent hCurrent TotalCurrent
    Charge OuterVoltage InnerVoltage QuasiFermiPotential DisplacementCurrent
    eCurrent hCurrent TotalCurrent Charge OuterVoltage
    InnerVoltage QuasiFermiPotential DisplacementCurrent eCurrent hCurrent
    TotalCurrent Charge ]
}

Data {
      0.00000000000000E+00
      0.00000000000000E+00   0.00000000000000E+00   0.00000000000000E+00   0.00000000000000E+00  -3.24626235993754E-17
      0.00000000000000E+00  -3.24626235993754E-17   7.45254285639280E-17   0.00000000000000E+00   0.00000000000000E+00
      0.00000000000000E+00   0.00000000000000E+00  -6.48669819937663E-17   0.00000000000000E+00  -6.48669819937663E-17
      7.91785701056047E-17   0.00000000000000E+00   0.00000000000000E+00   0.00000000000000E+00   0.00000000000000E+00
     -1.86563715115643E-36   1.86563715115643E-36   0.00000000000000E+00   6.66092269829442E-17   0.00000000000000E+00
      0.00000000000000E+00   0.00000000000000E+00   0.00000000000000E+00  -7.62087025955672E-20  -6.56651681622527E-30
     -7.62087026021337E-20  -2.20727393486714E-16
      0.00000000000000E+00
      0.00000000000000E+00   0.00000000000000E+00   0.00000000000000E+00   0.00000000000000E+00  -1.75127803801559E-15
      0.00000000000000E+00  -1.75127803801559E-15   7.45254303924780E-17   0.00000000000000E+00   0.00000000000000E+00
      0.00000000000000E+00   0.00000000000000E+00   7.94500540344945E-16   0.00000000000000E+00   7.94500540344945E-16
      7.91785716687836E-17   0.00000000000000E+00   0.00000000000000E+00   0.00000000000000E+00   0.00000000000000E+00
     -7.91100112980654E-36   7.91100112980654E-36   0.00000000000000E+00   6.66092360052148E-17   0.00000000000000E+00
      0.00000000000000E+00   0.00000000000000E+00   0.00000000000000E+00   8.54211757251219E-19  -9.01875742586402E-30
      8.54211757242200E-19  -2.20727405900777E-16
      1.00000000000000E-01
      0.00000000000000E+00   0.00000000000000E+00   0.00000000000000E+00   0.00000000000000E+00  -1.71853250440364E-15
      0.00000000000000E+00  -1.71853250440364E-15   3.68264930036350E-17   0.00000000000000E+00   0.00000000000000E+00
      0.00000000000000E+00   0.00000000000000E+00   6.64860029136381E-16   0.00000000000000E+00   6.64860029136381E-16
      4.80757587413524E-17   3.00000000000000E-01   3.00000000000000E-01   0.00000000000000E+00   0.00000000000000E+00
      8.91556475971921E-30  -8.91556475971921E-30   0.00000000000000E+00   2.51436803385624E-16   0.00000000000000E+00
      0.00000000000000E+00   0.00000000000000E+00   0.00000000000000E+00  -2.81402252563293E-18  -2.58366796871623E-31
     -2.81402252563319E-18  -3.32409358777670E-16
      2.00000000000000E-01
      0.00000000000000E+00   0.00000000000000E+00   0.00000000000000E+00   0.00000000000000E+00   3.57970413688672E-16
      0.00000000000000E+00   3.57970413688672E-16   1.18397826006412E-18   0.00000000000000E+00   0.00000000000000E+00
      0.00000000000000E+00   0.00000000000000E+00   1.05392696020518E-15   0.00000000000000E+00   1.05392696020518E-15
      1.86220049282891E-17   6.00000000000000E-01   6.00000000000000E-01   0.00000000000000E+00   0.00000000000000E+00
     -4.09412191928264E-26   4.09412191928264E-26   0.00000000000000E+00   4.49720817503346E-16   0.00000000000000E+00
      0.00000000000000E+00   0.00000000000000E+00   0.00000000000000E+00   5.87813721804723E-18  -1.58774647932398E-29
      5.87813721803135E-18  -4.61260531109647E-16
      3.00000000000000E-01
      0.00000000000000E+00   0.00000000000000E+00   0.00000000000000E+00   0.00000000000000E+00  -5.18621096177196E-12
      0.00000000000000E+00  -5.18621096177196E-12  -3.33466715425721E-17   0.00000000000000E+00   0.00000000000000E+00
      0.00000000000000E+00   0.00000000000000E+00   5.18532107210143E-12   0.00000000000000E+00   5.18532107210143E-12
     -1.04802823574275E-17   9.00000000000000E-01   9.00000000000000E-01   0.00000000000000E+00   0.00000000000000E+00
     -6.54760270363904E-36   6.54760270363904E-36   0.00000000000000E+00   6.53082830338647E-16   0.00000000000000E+00
      0.00000000000000E+00   0.00000000000000E+00   0.00000000000000E+00  -2.15103098153652E-15  -4.93966895469482E-25
     -2.15103098203048E-15  -5.96659361471314E-16
      4.00000000000000E-01
      0.00000000000000E+00   0.00000000000000E+00   0.00000000000000E+00   0.00000000000000E+00  -2.34302508672719E-15
      0.00000000000000E+00  -2.34302508672719E-15  -6.70486356684972E-17   0.00000000000000E+00   0.00000000000000E+00
      0.00000000000000E+00   0.00000000000000E+00   2.22855048439377E-15   0.00000000000000E+00   2.22855048439377E-15
     -3.94948123807393E-17   1.20000000000000E+00   1.20000000000000E+00   0.00000000000000E+00   0.00000000000000E+00
     -1.37966477031925E-31   1.37966477031925E-31   0.00000000000000E+00   8.59014762132366E-16   0.00000000000000E+00
      0.00000000000000E+00   0.00000000000000E+00   0.00000000000000E+00  -4.14171577845310E-12   1.78308365575738E-27
     -4.14171577845310E-12  -7.35550468100448E-16
      5.00000000000000E-01
      0.00000000000000E+00   0.00000000000000E+00   0.00000000000000E+00   0.00000000000000E+00   4.68401289617511E-14
      0.00000000000000E+00   4.68401289617511E-14  -1.00105795135312E-16   0.00000000000000E+00   0.00000000000000E+00
      0.00000000000000E+00   0.00000000000000E+00  -4.31751643674439E-14   0.00000000000000E+00  -4.31751643674439E-14
     -6.84911529964743E-17   1.50000000000000E+00   1.50000000000000E+00   0.00000000000000E+00   0.00000000000000E+00
     -7.63388635700597E-25   7.63388635700597E-25   0.00000000000000E+00   1.06645107120335E-15   0.00000000000000E+00
      0.00000000000000E+00   0.00000000000000E+00   0.00000000000000E+00  -3.97138725457224E-10   1.43477372441957E-25
     -3.97138725457224E-10  -8.76614704391863E-16
      6.00000000000000E-01
      0.00000000000000E+00   0.00000000000000E+00   0.00000000000000E+00   0.00000000000000E+00  -2.07451388855186E-15
      0.00000000000000E+00  -2.07451388855186E-15  -1.32653707238041E-16   0.00000000000000E+00   0.00000000000000E+00
      0.00000000000000E+00   0.00000000000000E+00   1.44258289711105E-15   0.00000000000000E+00   1.44258289711105E-15
     -9.74884827511135E-17   1.80000000000000E+00   1.80000000000000E+00   0.00000000000000E+00   0.00000000000000E+00
     -7.33125844875064E-25   7.33125844875064E-25   0.00000000000000E+00   1.27484269273912E-15   0.00000000000000E+00
      0.00000000000000E+00   0.00000000000000E+00   0.00000000000000E+00  -6.57969077722044E-15   1.30467573156801E-28
     -6.57969077722031E-15  -1.01914826212893E-15
      7.00000000000000E-01
      0.00000000000000E+00   0.00000000000000E+00   0.00000000000000E+00   0.00000000000000E+00   5.84447502464310E-16
      0.00000000000000E+00   5.84447502464310E-16  -1.64793062416534E-16   0.00000000000000E+00   0.00000000000000E+00
      0.00000000000000E+00   0.00000000000000E+00  -1.79374289608135E-16   0.00000000000000E+00  -1.79374289608135E-16
     -1.26490728993772E-16   2.10000000000000E+00   2.10000000000000E+00   0.00000000000000E+00   0.00000000000000E+00
     -7.31733089889242E-25   7.31733089889242E-25   0.00000000000000E+00   1.48387018379875E-15   0.00000000000000E+00
      0.00000000000000E+00   0.00000000000000E+00   0.00000000000000E+00  -7.42582185695109E-17   1.18790738707340E-30
     -7.42582185695097E-17  -1.16272716214277E-15
      7.50000000000000E-01
      0.00000000000000E+00   0.00000000000000E+00   0.00000000000000E+00   0.00000000000000E+00  -1.48473415747336E-14
      0.00000000000000E+00  -1.48473415747336E-14  -1.80733776562363E-16   0.00000000000000E+00   0.00000000000000E+00
      0.00000000000000E+00   0.00000000000000E+00   1.38248308901309E-14   0.00000000000000E+00   1.38248308901309E-14
     -1.40993454406258E-16   2.25000000000000E+00   2.25000000000000E+00   0.00000000000000E+00   0.00000000000000E+00
      1.58467577386315E-26  -1.58467577386315E-26   0.00000000000000E+00   1.58855612771071E-15   0.00000000000000E+00
      0.00000000000000E+00   0.00000000000000E+00   0.00000000000000E+00   1.88777171688472E-11   1.37749906735308E-26
      1.88777171688473E-11  -1.23481839805766E-15
      8.19666666666667E-01
      0.00000000000000E+00   0.00000000000000E+00   0.00000000000000E+00   0.00000000000000E+00  -2.10848355552540E-15
      0.00000000000000E+00  -2.10848355552540E-15  -2.02819923088944E-16   0.00000000000000E+00   0.00000000000000E+00
      0.00000000000000E+00   0.00000000000000E+00   9.57067651102374E-16   0.00000000000000E+00   9.57067651102374E-16
     -1.61201640664156E-16   2.45900000000000E+00   2.45900000000000E+00   0.00000000000000E+00   0.00000000000000E+00
     -7.93979743989648E-36   7.93979743989648E-36   0.00000000000000E+00   1.73456321391038E-15   0.00000000000000E+00
      0.00000000000000E+00   0.00000000000000E+00   0.00000000000000E+00   4.50085399434250E-17   5.47175122152940E-26
      4.50085399981425E-17  -1.33553623511566E-15
      9.14877777777778E-01
      0.00000000000000E+00   0.00000000000000E+00   0.00000000000000E+00   0.00000000000000E+00   3.84803784982429E-16
      0.00000000000000E+00   3.84803784982429E-16  -2.32797515492278E-16   0.00000000000000E+00   0.00000000000000E+00
      0.00000000000000E+00   0.00000000000000E+00   1.22175527683855E-15   0.00000000000000E+00   1.22175527683855E-15
     -1.88819846184911E-16   2.74463333333333E+00   2.74463333333333E+00   0.00000000000000E+00   0.00000000000000E+00
      1.49446014441648E-23  -1.49446014441648E-23   0.00000000000000E+00   1.93431345655162E-15   0.00000000000000E+00
      0.00000000000000E+00   0.00000000000000E+00   0.00000000000000E+00  -3.04358613257007E-13  -3.96026293059900E-27
     -3.04358613257011E-13  -1.47360244243175E-15
      1.00000000000000E+00
      0.00000000000000E+00   0.00000000000000E+00   0.00000000000000E+00   0.00000000000000E+00   1.16737104433849E-15
      0.00000000000000E+00   1.16737104433849E-15  -2.59422277065181E-16   0.00000000000000E+00   0.00000000000000E+00
      0.00000000000000E+00   0.00000000000000E+00  -2.09623432711388E-16   0.00000000000000E+00  -2.09623432711388E-16
     -2.13509958407697E-16   3.00000000000000E+00   3.00000000000000E+00   0.00000000000000E+00   0.00000000000000E+00
     -9.18658491205555E-36   9.18658491205555E-36   0.00000000000000E+00   2.11304141133782E-15   0.00000000000000E+00
      0.00000000000000E+00   0.00000000000000E+00   0.00000000000000E+00   2.92638426232482E-16  -1.77004192994183E-24
      2.92638424462440E-16  -1.59736526411828E-15
}
