DF-ISE text

Info {
  version   = 1.0
  type      = xyplot
  datasets  = [
    "time"
    "TopBridge OuterVoltage" "TopBridge InnerVoltage" "TopBridge QuasiFermiPotential" "TopBridge DisplacementCurrent" "TopBridge eCurrent"
    "TopBridge hCurrent" "TopBridge TotalCurrent" "TopBridge Charge" "BottomBridge OuterVoltage" "BottomBridge InnerVoltage"
    "BottomBridge QuasiFermiPotential" "BottomBridge DisplacementCurrent" "BottomBridge eCurrent" "BottomBridge hCurrent" "BottomBridge TotalCurrent"
    "BottomBridge Charge" "Left Temperature" "Left lHeatFlux" "Right Temperature" "Right lHeatFlux"
    "Tmin" "Tave" "Tmax" ]
  functions = [
    Time
    OuterVoltage InnerVoltage QuasiFermiPotential DisplacementCurrent eCurrent
    hCurrent TotalCurrent Charge OuterVoltage InnerVoltage
    QuasiFermiPotential DisplacementCurrent eCurrent hCurrent TotalCurrent
    Charge Temperature lHeatFlux Temperature lHeatFlux
    MinTemperature AveTemperature MaxTemperature ]
}

Data {
      0.00000000000000E+00
      0.00000000000000E+00   0.00000000000000E+00   0.00000000000000E+00   0.00000000000000E+00   6.95390467071628E-35
     -6.95390467071628E-35   0.00000000000000E+00  -1.50687436062327E-30   0.00000000000000E+00   0.00000000000000E+00
      0.00000000000000E+00   0.00000000000000E+00   6.93901651854635E-35  -6.93901651854635E-35   0.00000000000000E+00
     -8.22672456574963E-32   3.00000000000000E+02   0.00000000000000E+00   3.00000000000000E+02   0.00000000000000E+00
      3.00000000000000E+02   2.99999999999982E+02   3.00000000000000E+02
      0.00000000000000E+00
      0.00000000000000E+00   0.00000000000000E+00   0.00000000000000E+00   0.00000000000000E+00   6.95390467071628E-35
     -6.95390467071628E-35   0.00000000000000E+00  -1.50687436062327E-30   0.00000000000000E+00   0.00000000000000E+00
      0.00000000000000E+00   0.00000000000000E+00   6.93901651854635E-35  -6.93901651854635E-35   0.00000000000000E+00
     -8.22672456574963E-32   3.00000000000000E+02   0.00000000000000E+00   3.00000000000000E+02   0.00000000000000E+00
      3.00000000000000E+02   2.99999999999982E+02   3.00000000000000E+02
      1.00000000000000E-02
      2.00000000000000E-02   2.00000000000000E-02   0.00000000000000E+00   0.00000000000000E+00   1.02263640486728E-20
      5.22446774095314E-06   5.22446774095315E-06   6.65962718589243E-19   0.00000000000000E+00   0.00000000000000E+00
      0.00000000000000E+00   0.00000000000000E+00  -1.02259716992737E-20  -5.22446774095314E-06  -5.22446774095315E-06
     -6.65962718589304E-19   3.00000000000000E+02  -5.22582644177014E-08   3.00000000000000E+02  -5.22450129319670E-08
      3.00000000000000E+02   3.00003293608860E+02   3.00005415117194E+02
      2.94666666666667E-02
      5.89333333333333E-02   5.89333333333333E-02   0.00000000000000E+00   0.00000000000000E+00   3.03035937723827E-20
      1.53910952154315E-05   1.53910952154316E-05   1.96238759529555E-18   0.00000000000000E+00   0.00000000000000E+00
      0.00000000000000E+00   0.00000000000000E+00  -3.03002238697500E-20  -1.53910952154315E-05  -1.53910952154316E-05
     -1.96238759529586E-18   3.00000000000000E+02  -4.53581916343509E-07   3.00000000000000E+02  -4.53466903558991E-07
      3.00000000000000E+02   3.00028587324082E+02   3.00047002189008E+02
      6.68426666666667E-02
      1.33685333333333E-01   1.33685333333333E-01   0.00000000000000E+00   0.00000000000000E+00   7.05891244079826E-20
      3.48760214157601E-05   3.48760214157602E-05   4.45165868348139E-18   0.00000000000000E+00   0.00000000000000E+00
      0.00000000000000E+00   0.00000000000000E+00  -7.05722828758463E-20  -3.48760214157601E-05  -3.48760214157602E-05
     -4.45165868348116E-18   3.00000000000000E+02  -2.33150213704210E-06   3.00000000000000E+02  -2.33091096639583E-06
      3.00000000000000E+02   3.00146945188736E+02   3.00241612298806E+02
      1.02225280000000E-01
      2.04450560000000E-01   2.04450560000000E-01   0.00000000000000E+00   0.00000000000000E+00   1.12832879840467E-19
      5.32441859765356E-05   5.32441859765357E-05   6.80844287045104E-18   0.00000000000000E+00   0.00000000000000E+00
      0.00000000000000E+00   0.00000000000000E+00  -1.12793670464623E-19  -5.32441859765356E-05  -5.32441859765357E-05
     -6.80844287045119E-18   3.00000000000000E+02  -5.44359315914532E-06   3.00000000000000E+02  -5.44221297464935E-06
      3.00000000000000E+02   3.00343090069774E+02   3.00564161196792E+02
      1.35720820622222E-01
      2.71441641244444E-01   2.71441641244444E-01   0.00000000000000E+00   0.00000000000000E+00   1.58863452280044E-19
      7.05278729901463E-05   7.05278729901464E-05   9.03988719822073E-18   0.00000000000000E+00   0.00000000000000E+00
      0.00000000000000E+00   0.00000000000000E+00  -1.58792540972410E-19  -7.05278729901463E-05  -7.05278729901464E-05
     -9.03988719822089E-18   3.00000000000000E+02  -9.57331758676858E-06   3.00000000000000E+02  -9.57089053926672E-06
      3.00000000000000E+02   3.00603377129506E+02   3.00992259947644E+02
      1.67429932411259E-01
      3.34859864822519E-01   3.34859864822519E-01   0.00000000000000E+00   0.00000000000000E+00   2.10271704060709E-19
      8.67670324271746E-05   8.67670324271748E-05   1.11527289433478E-17   0.00000000000000E+00   0.00000000000000E+00
      0.00000000000000E+00   0.00000000000000E+00  -2.10158450242980E-19  -8.67670324271746E-05  -8.67670324271748E-05
     -1.11527289433479E-17   3.00000000000000E+02  -1.45292465337927E-05   3.00000000000000E+02  -1.45255634209233E-05
      3.00000000000000E+02   3.00915744114051E+02   3.01506123401005E+02
      1.97447891571548E-01
      3.94895783143095E-01   3.94895783143095E-01   0.00000000000000E+00   0.00000000000000E+00   2.68505944663771E-19
      1.02006919238014E-04   1.02006919238014E-04   1.31533242623243E-17   0.00000000000000E+00   0.00000000000000E+00
      0.00000000000000E+00   0.00000000000000E+00  -2.68337954352508E-19  -1.02006919238014E-04  -1.02006919238014E-04
     -1.31533242623244E-17   3.00000000000000E+02  -2.01436150548804E-05   3.00000000000000E+02  -2.01385093122744E-05
      3.00000000000000E+02   3.01269619956728E+02   3.02088413774900E+02
      2.54281894248360E-01
      5.08563788496721E-01   5.08563788496721E-01   0.00000000000000E+00   0.00000000000000E+00   2.33531520176050E-20
      1.30434993640700E-04   1.30434993640700E-04   1.69425155783349E-17   0.00000000000000E+00   0.00000000000000E+00
      0.00000000000000E+00   0.00000000000000E+00   1.79773080450887E-21  -1.30434993640700E-04  -1.30434993640700E-04
     -1.69425155783349E-17   3.00000000000000E+02  -3.31714386360071E-05   3.00000000000000E+02  -3.31630330675490E-05
      3.00000000000000E+02   3.02090801960983E+02   3.03440222509562E+02
      3.06569176711028E-01
      6.13138353422056E-01   6.13138353422056E-01   0.00000000000000E+00   0.00000000000000E+00   6.15043234281607E-19
      1.56009319152306E-04   1.56009319152307E-04   2.04304760365899E-17   0.00000000000000E+00   0.00000000000000E+00
      0.00000000000000E+00   0.00000000000000E+00  -6.14461688537445E-19  -1.56009319152306E-04  -1.56009319152307E-04
     -2.04304760365897E-17   3.00000000000000E+02  -4.78337602278624E-05   3.00000000000000E+02  -4.78216430357692E-05
      3.00000000000000E+02   3.03015066731081E+02   3.04962698129127E+02
      4.04172103974674E-01
      8.08344207949349E-01   8.08344207949349E-01   0.00000000000000E+00   0.00000000000000E+00   8.19775244521154E-19
      2.01988033223879E-04   2.01988033223880E-04   2.69472035183748E-17   0.00000000000000E+00   0.00000000000000E+00
      0.00000000000000E+00   0.00000000000000E+00  -8.07383860897645E-19  -2.01988033223879E-04  -2.01988033223880E-04
     -2.69472035183749E-17   3.00000000000000E+02  -8.16483995848103E-05   3.00000000000000E+02  -8.16277316588701E-05
      3.00000000000000E+02   3.05146855889132E+02   3.08478190822912E+02
      4.46466705788921E-01
      8.92933411577842E-01   8.92933411577842E-01   0.00000000000000E+00   0.00000000000000E+00   1.09215291468468E-18
      2.21120682431786E-04   2.21120682431787E-04   2.97738108543421E-17   0.00000000000000E+00   0.00000000000000E+00
      0.00000000000000E+00   0.00000000000000E+00  -1.07555030900788E-18  -2.21120682431786E-04  -2.21120682431787E-04
     -2.97738108543421E-17   3.00000000000000E+02  -9.87354308042035E-05   3.00000000000000E+02  -9.87104470320415E-05
      3.00000000000000E+02   3.06224199834989E+02   3.10256920449924E+02
      4.85941667482218E-01
      9.71883334964436E-01   9.71883334964436E-01   0.00000000000000E+00   0.00000000000000E+00   1.59513471516232E-18
      2.38516353580353E-04   2.38516353580354E-04   3.24135804363367E-17   0.00000000000000E+00   0.00000000000000E+00
      0.00000000000000E+00   0.00000000000000E+00  -1.57564020123242E-18  -2.38516353580353E-04  -2.38516353580354E-04
     -3.24135804363367E-17   3.00000000000000E+02  -1.15919804992176E-04   3.00000000000000E+02  -1.15890484207449E-04
      3.00000000000000E+02   3.07307762645010E+02   3.12047346509276E+02
      5.22784965062629E-01
      1.04556993012526E+00   1.04556993012526E+00   0.00000000000000E+00   0.00000000000000E+00   2.22614389984378E-18
      2.54338889674054E-04   2.54338889674056E-04   3.48788303457375E-17   0.00000000000000E+00   0.00000000000000E+00
      0.00000000000000E+00   0.00000000000000E+00  -2.20273718171408E-18  -2.54338889674054E-04  -2.54338889674056E-04
     -3.48788303457377E-17   3.00000000000000E+02  -1.32981719519292E-04   3.00000000000000E+02  -1.32948096012657E-04
      3.00000000000000E+02   3.08383684671521E+02   3.13826569322913E+02
      5.57172042804345E-01
      1.11434408560869E+00   1.11434408560869E+00   0.00000000000000E+00   0.00000000000000E+00   4.43199938373260E-18
      2.68740084932984E-04   2.68740084932988E-04   3.71810541461607E-17   0.00000000000000E+00   0.00000000000000E+00
      0.00000000000000E+00   0.00000000000000E+00  -4.42435344234585E-18  -2.68740084932984E-04  -2.68740084932988E-04
     -3.71810541461607E-17   3.00000000000000E+02  -1.49753838240326E-04   3.00000000000000E+02  -1.49715988398108E-04
      3.00000000000000E+02   3.09441411011059E+02   3.15577087608463E+02
      5.89266648696614E-01
      1.17853329739323E+00   1.17853329739323E+00   0.00000000000000E+00   0.00000000000000E+00   5.80247735869909E-18
      2.81858757302716E-04   2.81858757302722E-04   3.93309817997331E-17   0.00000000000000E+00   0.00000000000000E+00
      0.00000000000000E+00   0.00000000000000E+00  -5.79185588876752E-18  -2.81858757302716E-04  -2.81858757302722E-04
     -3.93309817997332E-17   3.00000000000000E+02  -1.66111504431361E-04   3.00000000000000E+02  -1.66069535861613E-04
      3.00000000000000E+02   3.10473075524834E+02   3.17285800749726E+02
      6.50032435852642E-01
      1.30006487170528E+00   1.30006487170528E+00   0.00000000000000E+00   0.00000000000000E+00   9.76109349293972E-18
      3.05840933707589E-04   3.05840933707598E-04   4.34047421341217E-17   0.00000000000000E+00   0.00000000000000E+00
      0.00000000000000E+00   0.00000000000000E+00  -9.73002371464246E-18  -3.05840933707589E-04  -3.05840933707598E-04
     -4.34047421341217E-17   3.00000000000000E+02  -1.98830938588282E-04   3.00000000000000E+02  -1.98780740999326E-04
      3.00000000000000E+02   3.12536887548010E+02   3.20707973844527E+02
      7.60221063228908E-01
      1.52044212645782E+00   1.52044212645782E+00   0.00000000000000E+00   0.00000000000000E+00   2.55826601275255E-17
      3.46496707403471E-04   3.46496707403497E-04   5.08029341282955E-17   0.00000000000000E+00   0.00000000000000E+00
      0.00000000000000E+00   0.00000000000000E+00  -2.55174698740074E-17  -3.46496707403471E-04  -3.46496707403497E-04
     -5.08029341282955E-17   3.00000000000000E+02  -2.63447694599204E-04   3.00000000000000E+02  -2.63381282649948E-04
      3.00000000000000E+02   3.16613539453401E+02   3.27483358874552E+02
      8.08704059274465E-01
      1.61740811854893E+00   1.61740811854893E+00   0.00000000000000E+00   0.00000000000000E+00   3.93759803561613E-17
      3.63257303154652E-04   3.63257303154691E-04   5.40627820468229E-17   0.00000000000000E+00   0.00000000000000E+00
      0.00000000000000E+00   0.00000000000000E+00  -3.92668185797319E-17  -3.63257303154652E-04  -3.63257303154691E-04
     -5.40627820468234E-17   3.00000000000000E+02  -2.93806831511088E-04   3.00000000000000E+02  -2.93732818278125E-04
      3.00000000000000E+02   3.18529295937290E+02   3.30674527288020E+02
      8.53308415636377E-01
      1.70661683127275E+00   1.70661683127275E+00   0.00000000000000E+00   0.00000000000000E+00   5.87117675666812E-17
      3.78090139513376E-04   3.78090139513434E-04   5.70643925670396E-17   0.00000000000000E+00   0.00000000000000E+00
      0.00000000000000E+00   0.00000000000000E+00  -5.85097796020289E-17  -3.78090139513376E-04  -3.78090139513434E-04
     -5.70643925670399E-17   3.00000000000000E+02  -3.22668233178924E-04   3.00000000000000E+02  -3.22587003561507E-04
      3.00000000000000E+02   3.20350783747672E+02   3.33712958830387E+02
      8.94344423489336E-01
      1.78868884697867E+00   1.78868884697867E+00   0.00000000000000E+00   0.00000000000000E+00   8.51354972772724E-17
      3.91253332646356E-04   3.91253332646441E-04   5.98280282470352E-17   0.00000000000000E+00   0.00000000000000E+00
      0.00000000000000E+00   0.00000000000000E+00  -8.45517946754859E-17  -3.91253332646356E-04  -3.91253332646440E-04
     -5.98280282470354E-17   3.00000000000000E+02  -3.49957528324554E-04   3.00000000000000E+02  -3.49869484174997E-04
      3.00000000000000E+02   3.22073272302769E+02   3.36590114214971E+02
      9.32097550714059E-01
      1.86419510142812E+00   1.86419510142812E+00   0.00000000000000E+00   0.00000000000000E+00   1.23773123587436E-16
      4.02965468591633E-04   4.02965468591757E-04   6.23723756833426E-17   0.00000000000000E+00   0.00000000000000E+00
      0.00000000000000E+00   0.00000000000000E+00  -1.18712929416371E-16  -4.02965468591638E-04  -4.02965468591757E-04
     -6.23723756833428E-17   3.00000000000000E+02  -3.75654059872003E-04   3.00000000000000E+02  -3.75559606586394E-04
      3.00000000000000E+02   3.23695421438587E+02   3.39303115952821E+02
      1.00000000000000E+00
      2.00000000000000E+00   2.00000000000000E+00   0.00000000000000E+00   0.00000000000000E+00   2.56948491289807E-18
      4.23112597203659E-04   4.23112597203662E-04   6.69530359971207E-17   0.00000000000000E+00   0.00000000000000E+00
      0.00000000000000E+00   0.00000000000000E+00  -2.18544727094402E-16  -4.23112597203442E-04  -4.23112597203660E-04
     -6.69530359971208E-17   3.00000000000000E+02  -4.23170186826594E-04   3.00000000000000E+02  -4.23063901973154E-04
      3.00000000000000E+02   3.26695481208555E+02   3.44329511561331E+02
}
