DF-ISE text

Info {
  version   = 1.0
  type      = xyplot
  datasets  = [
    "time"
    "TopBridge OuterVoltage" "TopBridge InnerVoltage" "TopBridge QuasiFermiPotential" "TopBridge DisplacementCurrent" "TopBridge eCurrent"
    "TopBridge hCurrent" "TopBridge TotalCurrent" "TopBridge Charge" "TopBridge Temperature" "TopBridge lHeatFlux"
    "BottomBridge OuterVoltage" "BottomBridge InnerVoltage" "BottomBridge QuasiFermiPotential" "BottomBridge DisplacementCurrent" "BottomBridge eCurrent"
    "BottomBridge hCurrent" "BottomBridge TotalCurrent" "BottomBridge Charge" "BottomBridge Temperature" "BottomBridge lHeatFlux"
    "Tmin" "Tave" "Tmax" ]
  functions = [
    Time
    OuterVoltage InnerVoltage QuasiFermiPotential DisplacementCurrent eCurrent
    hCurrent TotalCurrent Charge Temperature lHeatFlux
    OuterVoltage InnerVoltage QuasiFermiPotential DisplacementCurrent eCurrent
    hCurrent TotalCurrent Charge Temperature lHeatFlux
    MinTemperature AveTemperature MaxTemperature ]
}

Data {
      0.00000000000000E+00
      0.00000000000000E+00   0.00000000000000E+00   0.00000000000000E+00   0.00000000000000E+00   6.95755513110390E-35
     -6.95755513110390E-35   0.00000000000000E+00   0.00000000000000E+00   3.00000000000000E+02   0.00000000000000E+00
      0.00000000000000E+00   0.00000000000000E+00   0.00000000000000E+00   0.00000000000000E+00   6.93536605815868E-35
     -6.93536605815868E-35   0.00000000000000E+00  -8.59509698878497E-48   3.00000000000000E+02   0.00000000000000E+00
      3.00000000000000E+02   3.00000000000131E+02   3.00000000000000E+02
      0.00000000000000E+00
      0.00000000000000E+00   0.00000000000000E+00   0.00000000000000E+00   0.00000000000000E+00   6.95755513110390E-35
     -6.95755513110390E-35   0.00000000000000E+00   0.00000000000000E+00   3.00000000000000E+02   0.00000000000000E+00
      0.00000000000000E+00   0.00000000000000E+00   0.00000000000000E+00   0.00000000000000E+00   6.93536605815868E-35
     -6.93536605815868E-35   0.00000000000000E+00  -8.59509698878497E-48   3.00000000000000E+02   0.00000000000000E+00
      3.00000000000000E+02   3.00000000000131E+02   3.00000000000000E+02
      1.00000000000000E-02
      2.00000000000000E-02   2.00000000000000E-02   0.00000000000000E+00   0.00000000000000E+00   1.02182521791836E-20
      5.22434151641121E-06   5.22434151641122E-06   2.10713210980842E-19   3.00000000000000E+02  -5.20839812646786E-08
      0.00000000000000E+00   0.00000000000000E+00   0.00000000000000E+00   0.00000000000000E+00  -1.02173521119494E-20
     -5.22434151641121E-06  -5.22434151641122E-06  -2.10713210980842E-19   3.00000000000000E+02  -5.20810935661496E-08
      3.00000000000000E+02   3.00000263758480E+02   3.00000830264490E+02
      2.94666666666667E-02
      5.89333333333333E-02   5.89333333333333E-02   0.00000000000000E+00   0.00000000000000E+00   3.01027342941983E-20
      1.53937552073730E-05   1.53937552073730E-05   6.20911425463848E-19   3.00000000000000E+02  -4.52242830961863E-07
      0.00000000000000E+00   0.00000000000000E+00   0.00000000000000E+00   0.00000000000000E+00  -3.00950334695501E-20
     -1.53937552073730E-05  -1.53937552073730E-05  -6.20911425463848E-19   3.00000000000000E+02  -4.52168941472548E-07
      3.00000000000000E+02   3.00002290107369E+02   3.00007208916800E+02
      6.73617777777778E-02
      1.34723555555556E-01   1.34723555555556E-01   0.00000000000000E+00   0.00000000000000E+00   6.87540478590001E-20
      3.51852235173019E-05   3.51852235173019E-05   1.41951754735725E-18   3.00000000000000E+02  -2.36328353635614E-06
      0.00000000000000E+00   0.00000000000000E+00   0.00000000000000E+00   0.00000000000000E+00  -6.87154947306612E-20
     -3.51852235173019E-05  -3.51852235173019E-05  -1.41951754735725E-18   3.00000000000000E+02  -2.36240033716527E-06
      3.00000000000000E+02   3.00011966810076E+02   3.00037671254193E+02
      1.41130927407407E-01
      2.82261854814815E-01   2.82261854814815E-01   0.00000000000000E+00   0.00000000000000E+00   1.43718591953210E-19
      7.36757463959394E-05   7.36757463959395E-05   2.97482051820467E-18   3.00000000000000E+02  -1.03699998456878E-05
      0.00000000000000E+00   0.00000000000000E+00   0.00000000000000E+00   0.00000000000000E+00  -1.43559628185101E-19
     -7.36757463959394E-05  -7.36757463959395E-05  -2.97482051820467E-18   3.00000000000000E+02  -1.03618598391599E-05
      3.00000000000000E+02   3.00052510810083E+02   3.00165329777268E+02
      2.84734872019753E-01
      5.69469744039506E-01   5.69469744039506E-01   0.00000000000000E+00   0.00000000000000E+00   2.88386400459376E-19
      1.48335901859386E-04   1.48335901859386E-04   6.00762723998413E-18   3.00000000000000E+02  -4.21404028140438E-05
      0.00000000000000E+00   0.00000000000000E+00   0.00000000000000E+00   0.00000000000000E+00  -2.87767159594378E-19
     -1.48335901859386E-04  -1.48335901859386E-04  -6.00762723998413E-18   3.00000000000000E+02  -4.20729840734901E-05
      3.00000000000000E+02   3.00213484582888E+02   3.00672580069347E+02
      4.84734872019753E-01
      9.69469744039506E-01   9.69469744039506E-01   0.00000000000000E+00   0.00000000000000E+00   4.86296710414925E-19
      2.51279442749172E-04   2.51279442749172E-04   1.02518529475907E-17   3.00000000000000E+02  -1.21601170407374E-04
      0.00000000000000E+00   0.00000000000000E+00   0.00000000000000E+00   0.00000000000000E+00  -4.84481064690707E-19
     -2.51279442749172E-04  -2.51279442749172E-04  -1.02518529475907E-17   3.00000000000000E+02  -1.21262115766990E-04
      3.00000000000000E+02   3.00616985152259E+02   3.01946858336938E+02
      6.84734872019753E-01
      1.36946974403951E+00   1.36946974403951E+00   0.00000000000000E+00   0.00000000000000E+00   6.79048444308205E-19
      3.52372080054116E-04   3.52372080054117E-04   1.45330733699976E-17   3.00000000000000E+02  -2.41038406997172E-04
      0.00000000000000E+00   0.00000000000000E+00   0.00000000000000E+00   0.00000000000000E+00  -6.75189627939259E-19
     -3.52372080054116E-04  -3.52372080054117E-04  -1.45330733699975E-17   3.00000000000000E+02  -2.40060159977370E-04
      3.00000000000000E+02   3.01226127374768E+02   3.03878093114277E+02
      8.84734872019753E-01
      1.76946974403951E+00   1.76946974403951E+00   0.00000000000000E+00   0.00000000000000E+00   8.65907211650512E-19
      4.50961138440503E-04   4.50961138440504E-04   1.88651918943546E-17   3.00000000000000E+02  -3.98859611013663E-04
      0.00000000000000E+00   0.00000000000000E+00   0.00000000000000E+00   0.00000000000000E+00  -8.58720391849547E-19
     -4.50961138440503E-04  -4.50961138440504E-04  -1.88651918943546E-17   3.00000000000000E+02  -3.96703669008560E-04
      3.00000000000000E+02   3.02036154910842E+02   3.06460211751828E+02
      1.00000000000000E+00
      2.00000000000000E+00   2.00000000000000E+00   0.00000000000000E+00   0.00000000000000E+00   9.70836719158316E-19
      5.06415017921218E-04   5.06415017921219E-04   2.13900978099216E-17   3.00000000000000E+02  -5.06472670397758E-04
      0.00000000000000E+00   0.00000000000000E+00   0.00000000000000E+00   0.00000000000000E+00  -9.60838483480201E-19
     -5.06415017921218E-04  -5.06415017921219E-04  -2.13900978099216E-17   3.00000000000000E+02  -5.03331954464308E-04
      3.00000000000000E+02   3.02591946417904E+02   3.08241132737146E+02
}
