DF-ISE text

Info {
  version   = 1.0
  type      = xyplot
  datasets  = [
    "time"
    "TopBridge OuterVoltage" "TopBridge InnerVoltage" "TopBridge QuasiFermiPotential" "TopBridge DisplacementCurrent" "TopBridge eCurrent"
    "TopBridge hCurrent" "TopBridge TotalCurrent" "TopBridge Charge" "BottomBridge OuterVoltage" "BottomBridge InnerVoltage"
    "BottomBridge QuasiFermiPotential" "BottomBridge DisplacementCurrent" "BottomBridge eCurrent" "BottomBridge hCurrent" "BottomBridge TotalCurrent"
    "BottomBridge Charge" ]
  functions = [
    Time
    OuterVoltage InnerVoltage QuasiFermiPotential DisplacementCurrent eCurrent
    hCurrent TotalCurrent Charge OuterVoltage InnerVoltage
    QuasiFermiPotential DisplacementCurrent eCurrent hCurrent TotalCurrent
    Charge ]
}

Data {
      0.00000000000000E+00
      0.00000000000000E+00   0.00000000000000E+00   0.00000000000000E+00   0.00000000000000E+00   6.95755513110390E-35
     -6.95755513110390E-35   0.00000000000000E+00   0.00000000000000E+00   0.00000000000000E+00   0.00000000000000E+00
      0.00000000000000E+00   0.00000000000000E+00   6.93536605815868E-35  -6.93536605815868E-35   0.00000000000000E+00
     -8.59509698878497E-48
      0.00000000000000E+00
      0.00000000000000E+00   0.00000000000000E+00   0.00000000000000E+00   0.00000000000000E+00   6.95755513110390E-35
     -6.95755513110390E-35   0.00000000000000E+00   0.00000000000000E+00   0.00000000000000E+00   0.00000000000000E+00
      0.00000000000000E+00   0.00000000000000E+00   6.93536605815868E-35  -6.93536605815868E-35   0.00000000000000E+00
     -8.59509698878497E-48
      1.00000000000000E-02
      2.00000000000000E-02   2.00000000000000E-02   0.00000000000000E+00   0.00000000000000E+00   1.02181630328162E-20
      5.22435730564760E-06   5.22435730564761E-06   2.10712974786835E-19   0.00000000000000E+00   0.00000000000000E+00
      0.00000000000000E+00   0.00000000000000E+00  -1.02181843973749E-20  -5.22435730564760E-06  -5.22435730564761E-06
     -2.10712974786835E-19
      2.94666666666667E-02
      5.89333333333333E-02   5.89333333333333E-02   0.00000000000000E+00   0.00000000000000E+00   3.01076000107883E-20
      1.53941591423713E-05   1.53941591423713E-05   6.20903996901383E-19   0.00000000000000E+00   0.00000000000000E+00
      0.00000000000000E+00   0.00000000000000E+00  -3.01078218551923E-20  -1.53941591423713E-05  -1.53941591423713E-05
     -6.20903996901383E-19
      6.73617777777778E-02
      1.34723555555556E-01   1.34723555555556E-01   0.00000000000000E+00   0.00000000000000E+00   6.88189219589098E-20
      3.51900477433858E-05   3.51900477433858E-05   1.41942403472652E-18   0.00000000000000E+00   0.00000000000000E+00
      0.00000000000000E+00   0.00000000000000E+00  -6.88202633505685E-20  -3.51900477433858E-05  -3.51900477433858E-05
     -1.41942403472652E-18
      1.41130927407407E-01
      2.82261854814815E-01   2.82261854814815E-01   0.00000000000000E+00   0.00000000000000E+00   1.44157030137412E-19
      7.37200699753600E-05   7.37200699753602E-05   2.97394318590019E-18   0.00000000000000E+00   0.00000000000000E+00
      0.00000000000000E+00   0.00000000000000E+00  -1.44162308057850E-19  -7.37200699753600E-05  -7.37200699753602E-05
     -2.97394318590020E-18
      2.84734872019753E-01
      5.69469744039506E-01   5.69469744039506E-01   0.00000000000000E+00   0.00000000000000E+00   2.90745234645071E-19
      1.48698722718808E-04   1.48698722718808E-04   6.00036973804244E-18   0.00000000000000E+00   0.00000000000000E+00
      0.00000000000000E+00   0.00000000000000E+00  -2.90759680476741E-19  -1.48698722718808E-04  -1.48698722718808E-04
     -6.00036973804244E-18
      4.84734872019753E-01
      9.69469744039506E-01   9.69469744039506E-01   0.00000000000000E+00   0.00000000000000E+00   4.94720707932131E-19
      2.53056497811246E-04   2.53056497811246E-04   1.02160762843437E-17   0.00000000000000E+00   0.00000000000000E+00
      0.00000000000000E+00   0.00000000000000E+00  -4.94747651031192E-19  -2.53056497811246E-04  -2.53056497811246E-04
     -1.02160762843437E-17
      6.84734872019753E-01
      1.36946974403951E+00   1.36946974403951E+00   0.00000000000000E+00   0.00000000000000E+00   6.98457793186363E-19
      3.57328694528358E-04   3.57328694528359E-04   1.44327409915412E-17   0.00000000000000E+00   0.00000000000000E+00
      0.00000000000000E+00   0.00000000000000E+00  -6.98496823830505E-19  -3.57328694528358E-04  -3.57328694528359E-04
     -1.44327409915412E-17
      8.84734872019753E-01
      1.76946974403951E+00   1.76946974403951E+00   0.00000000000000E+00   0.00000000000000E+00   9.01940316574928E-19
      4.61508765697961E-04   4.61508765697962E-04   1.86504378635555E-17   0.00000000000000E+00   0.00000000000000E+00
      0.00000000000000E+00   0.00000000000000E+00  -9.01991316305464E-19  -4.61508765697961E-04  -4.61508765697962E-04
     -1.86504378635555E-17
      1.00000000000000E+00
      2.00000000000000E+00   2.00000000000000E+00   0.00000000000000E+00   0.00000000000000E+00   1.01909259890089E-18
      5.21506534046052E-04   5.21506534046053E-04   2.10816966176254E-17   0.00000000000000E+00   0.00000000000000E+00
      0.00000000000000E+00   0.00000000000000E+00  -1.01915049426424E-18  -5.21506534046052E-04  -5.21506534046053E-04
     -2.10816966176254E-17
}
