DF-ISE text

Info {
  version   = 1.0
  type      = xyplot
  datasets  = [
    "time"
    "substrate OuterVoltage" "substrate InnerVoltage" "substrate QuasiFermiPotential" "substrate DisplacementCurrent" "substrate eCurrent"
    "substrate hCurrent" "substrate TotalCurrent" "substrate Charge" "source OuterVoltage" "source InnerVoltage"
    "source QuasiFermiPotential" "source DisplacementCurrent" "source eCurrent" "source hCurrent" "source TotalCurrent"
    "source Charge" "drain OuterVoltage" "drain InnerVoltage" "drain QuasiFermiPotential" "drain DisplacementCurrent"
    "drain eCurrent" "drain hCurrent" "drain TotalCurrent" "drain Charge" "gate OuterVoltage"
    "gate InnerVoltage" "gate QuasiFermiPotential" "gate DisplacementCurrent" "gate eCurrent" "gate hCurrent"
    "gate TotalCurrent" "gate Charge" ]
  functions = [
    Time
    OuterVoltage InnerVoltage QuasiFermiPotential DisplacementCurrent eCurrent
    hCurrent TotalCurrent Charge OuterVoltage InnerVoltage
    QuasiFermiPotential DisplacementCurrent eCurrent hCurrent TotalCurrent
    Charge OuterVoltage InnerVoltage QuasiFermiPotential DisplacementCurrent
    eCurrent hCurrent TotalCurrent Charge OuterVoltage
    InnerVoltage QuasiFermiPotential DisplacementCurrent eCurrent hCurrent
    TotalCurrent Charge ]
}

Data {
      0.00000000000000E+00
      0.00000000000000E+00   0.00000000000000E+00   0.00000000000000E+00   0.00000000000000E+00   4.35580766957643E-18
      1.84731514600863E-26   4.35580768804958E-18  -6.73057961700179E-15   0.00000000000000E+00   0.00000000000000E+00
      0.00000000000000E+00   0.00000000000000E+00  -2.19489821190938E-18   3.50437433006821E-26  -2.19489817686564E-18
      2.58509052764411E-15   0.00000000000000E+00   0.00000000000000E+00   0.00000000000000E+00   0.00000000000000E+00
     -2.16090945766656E-18  -5.35173844029112E-26  -2.16090951118394E-18   2.58509052764411E-15   1.00000000000000E+00
      1.00000000000000E+00   0.00000000000000E+00   0.00000000000000E+00   0.00000000000000E+00   0.00000000000000E+00
      0.00000000000000E+00   1.56039856171359E-15
      1.00000000000000E-02
      0.00000000000000E+00   0.00000000000000E+00   0.00000000000000E+00   0.00000000000000E+00   7.19853717798215E-17
     -5.81901561556188E-17   1.37952156242027E-17  -6.78862445354224E-15   0.00000000000000E+00   0.00000000000000E+00
      0.00000000000000E+00   0.00000000000000E+00  -3.85428534047719E-17  -1.30680344306406E-26  -3.85428534178399E-17
      2.58509052764408E-15   3.00000000000000E-02   3.00000000000000E-02   0.00000000000000E+00   0.00000000000000E+00
      2.47090218165814E-17   3.86159770558177E-20   2.47476377936372E-17   2.64563283521910E-15   1.00000000000000E+00
      1.00000000000000E+00   0.00000000000000E+00   0.00000000000000E+00   0.00000000000000E+00   0.00000000000000E+00
      0.00000000000000E+00   1.55790109067908E-15
      2.33333333333333E-02
      0.00000000000000E+00   0.00000000000000E+00   0.00000000000000E+00   0.00000000000000E+00  -4.93410148220554E-19
     -1.13461486214646E-16  -1.13954896362866E-16  -6.86563933398391E-15   0.00000000000000E+00   0.00000000000000E+00
      0.00000000000000E+00   0.00000000000000E+00  -5.22336666947318E-17  -2.93192311000824E-26  -5.22336667240510E-17
      2.58509052764406E-15   7.00000000000000E-02   7.00000000000000E-02   0.00000000000000E+00   0.00000000000000E+00
      1.66450835111734E-16  -2.62272024816411E-19   1.66188563086917E-16   2.72584974367495E-15   1.00000000000000E+00
      1.00000000000000E+00   0.00000000000000E+00   0.00000000000000E+00   0.00000000000000E+00   0.00000000000000E+00
      0.00000000000000E+00   1.55469906266492E-15
      4.24444444444445E-02
      0.00000000000000E+00   0.00000000000000E+00   0.00000000000000E+00   0.00000000000000E+00  -1.77133540667718E-19
     -1.87665666699253E-16  -1.87842800239921E-16  -6.97537638690854E-15   0.00000000000000E+00   0.00000000000000E+00
      0.00000000000000E+00   0.00000000000000E+00  -5.33887324031417E-17   2.67205123893457E-26  -5.33887323764212E-17
      2.58509052764403E-15   1.27333333333333E-01   1.27333333333333E-01   0.00000000000000E+00   0.00000000000000E+00
      2.41159477067151E-16   7.20555491914105E-20   2.41231532616342E-16   2.83995263989628E-15   1.00000000000000E+00
      1.00000000000000E+00   0.00000000000000E+00   0.00000000000000E+00   0.00000000000000E+00   0.00000000000000E+00
      0.00000000000000E+00   1.55033321936825E-15
      6.74444444444444E-02
      0.00000000000000E+00   0.00000000000000E+00   0.00000000000000E+00   0.00000000000000E+00   7.48738401510182E-19
     -3.01694127036416E-16  -3.00945388634905E-16  -7.11780176778905E-15   0.00000000000000E+00   0.00000000000000E+00
      0.00000000000000E+00   0.00000000000000E+00  -5.31903939304886E-17  -2.07082371697220E-26  -5.31903939511968E-17
      2.58509052764398E-15   2.02333333333333E-01   2.02333333333333E-01   0.00000000000000E+00   0.00000000000000E+00
      3.54073323657424E-16   6.24589286779955E-20   3.54135782586102E-16   2.98781322309630E-15   1.00000000000000E+00
      1.00000000000000E+00   0.00000000000000E+00   0.00000000000000E+00   0.00000000000000E+00   0.00000000000000E+00
      0.00000000000000E+00   1.54489801704879E-15
      9.24444444444444E-02
      0.00000000000000E+00   0.00000000000000E+00   0.00000000000000E+00   0.00000000000000E+00   1.03313220348302E-18
     -4.42859713579456E-16  -4.41826581375973E-16  -7.25879868389849E-15   0.00000000000000E+00   0.00000000000000E+00
      0.00000000000000E+00   0.00000000000000E+00  -5.57669830255784E-17   1.36972594592316E-26  -5.57669830118811E-17
      2.58509052764392E-15   2.77333333333333E-01   2.77333333333333E-01   0.00000000000000E+00   0.00000000000000E+00
      4.97543641871459E-16   4.99225163954883E-20   4.97593564387855E-16   3.13407991497535E-15   1.00000000000000E+00
      1.00000000000000E+00   0.00000000000000E+00   0.00000000000000E+00   0.00000000000000E+00   0.00000000000000E+00
      0.00000000000000E+00   1.53962824127921E-15
      1.17444444444444E-01
      0.00000000000000E+00   0.00000000000000E+00   0.00000000000000E+00   0.00000000000000E+00   9.69688965456519E-19
     -6.06216211214411E-16  -6.05246522248954E-16  -7.39809294785763E-15   0.00000000000000E+00   0.00000000000000E+00
      0.00000000000000E+00   0.00000000000000E+00  -5.47000410854519E-17  -3.27212438430160E-26  -5.47000411181731E-17
      2.58509052764386E-15   3.52333333333333E-01   3.52333333333333E-01   0.00000000000000E+00   0.00000000000000E+00
      6.59915470357985E-16   3.10930091422295E-20   6.59946563367127E-16   3.27854995101150E-15   1.00000000000000E+00
      1.00000000000000E+00   0.00000000000000E+00   0.00000000000000E+00   0.00000000000000E+00   0.00000000000000E+00
      0.00000000000000E+00   1.53445246920229E-15
      1.42444444444444E-01
      0.00000000000000E+00   0.00000000000000E+00   0.00000000000000E+00   0.00000000000000E+00   6.74229816458393E-19
     -7.93765272814941E-16  -7.93091042998483E-16  -7.53531668386469E-15   0.00000000000000E+00   0.00000000000000E+00
      0.00000000000000E+00   0.00000000000000E+00  -5.40786401441775E-17   2.33531024386403E-26  -5.40786401208243E-17
      2.58509052764379E-15   4.27333333333333E-01   4.27333333333333E-01   0.00000000000000E+00   0.00000000000000E+00
      8.47113006494519E-16   5.66766247889326E-20   8.47169683119308E-16   3.42086266537948E-15   1.00000000000000E+00
      1.00000000000000E+00   0.00000000000000E+00   0.00000000000000E+00   0.00000000000000E+00   0.00000000000000E+00
      0.00000000000000E+00   1.52936349084142E-15
      1.67444444444444E-01
      0.00000000000000E+00   0.00000000000000E+00   0.00000000000000E+00   0.00000000000000E+00   1.11238529959210E-17
     -1.01737196733175E-15  -1.00624811433583E-15  -7.66998643911822E-15   0.00000000000000E+00   0.00000000000000E+00
      0.00000000000000E+00   0.00000000000000E+00  -5.69630905282324E-17  -9.09198140265551E-27  -5.69630905373244E-17
      2.58509052764370E-15   5.02333333333333E-01   5.02333333333333E-01   0.00000000000000E+00   0.00000000000000E+00
      1.06315452515580E-15   5.66797173539730E-20   1.06321120487315E-15   3.56051371261176E-15   1.00000000000000E+00
      1.00000000000000E+00   0.00000000000000E+00   0.00000000000000E+00   0.00000000000000E+00   0.00000000000000E+00
      0.00000000000000E+00   1.52438219886277E-15
      1.92444444444444E-01
      0.00000000000000E+00   0.00000000000000E+00   0.00000000000000E+00   0.00000000000000E+00  -5.49011956732959E-19
     -1.27914483927480E-15  -1.27969385123153E-15  -7.80149223285698E-15   0.00000000000000E+00   0.00000000000000E+00
      0.00000000000000E+00   0.00000000000000E+00  -5.46794524113809E-17   7.20071642291640E-27  -5.46794524041802E-17
      2.58509052764360E-15   5.77333333333333E-01   5.77333333333333E-01   0.00000000000000E+00   0.00000000000000E+00
      1.33431662070000E-15   5.66829357136812E-20   1.33437330363572E-15   3.69686328213876E-15   1.00000000000000E+00
      1.00000000000000E+00   0.00000000000000E+00   0.00000000000000E+00   0.00000000000000E+00   0.00000000000000E+00
      0.00000000000000E+00   1.51953842307464E-15
      2.17444444444444E-01
      0.00000000000000E+00   0.00000000000000E+00   0.00000000000000E+00   0.00000000000000E+00  -7.08013893716709E-19
     -1.55162093472136E-15  -1.55232894861507E-15  -7.92916035721610E-15   0.00000000000000E+00   0.00000000000000E+00
      0.00000000000000E+00   0.00000000000000E+00  -5.35871334542670E-17   4.43333449651960E-26  -5.35871334099336E-17
      2.58509052764350E-15   6.52333333333333E-01   6.52333333333333E-01   0.00000000000000E+00   0.00000000000000E+00
      1.60585939770551E-15   5.66843195025917E-20   1.60591608202501E-15   3.82922125458648E-15   1.00000000000000E+00
      1.00000000000000E+00   0.00000000000000E+00   0.00000000000000E+00   0.00000000000000E+00   0.00000000000000E+00
      0.00000000000000E+00   1.51484857498613E-15
      2.42444444444444E-01
      0.00000000000000E+00   0.00000000000000E+00   0.00000000000000E+00   0.00000000000000E+00   5.21481851705237E-18
     -1.77157223274118E-15  -1.76635741422413E-15  -8.05243387750755E-15   0.00000000000000E+00   0.00000000000000E+00
      0.00000000000000E+00   0.00000000000000E+00  -5.56425389578618E-17   2.28658581665466E-26  -5.56425389349960E-17
      2.58509052764341E-15   7.27333333333333E-01   7.27333333333333E-01   0.00000000000000E+00   0.00000000000000E+00
      1.82194324985699E-15   5.67033021283455E-20   1.82199995315912E-15   3.95705188652246E-15   1.00000000000000E+00
      1.00000000000000E+00   0.00000000000000E+00   0.00000000000000E+00   0.00000000000000E+00   0.00000000000000E+00
      0.00000000000000E+00   1.51029146334169E-15
      2.67444444444444E-01
      0.00000000000000E+00   0.00000000000000E+00   0.00000000000000E+00   0.00000000000000E+00   6.51924073590836E-20
     -1.90915151845570E-15  -1.90908632604834E-15  -8.17111483194966E-15   0.00000000000000E+00   0.00000000000000E+00
      0.00000000000000E+00   0.00000000000000E+00  -5.46722740638329E-17   1.35354190068194E-26  -5.46722740502974E-17
      2.58509052764336E-15   8.02333333333333E-01   8.02333333333333E-01   0.00000000000000E+00   0.00000000000000E+00
      1.96370188681858E-15   5.67132800559439E-20   1.96375860009864E-15   4.08020816095251E-15   1.00000000000000E+00
      1.00000000000000E+00   0.00000000000000E+00   0.00000000000000E+00   0.00000000000000E+00   0.00000000000000E+00
      0.00000000000000E+00   1.50581614335380E-15
      2.92444444444444E-01
      0.00000000000000E+00   0.00000000000000E+00   0.00000000000000E+00   0.00000000000000E+00  -2.72412891314183E-19
     -1.99463640801894E-15  -1.99490882091026E-15  -8.28557542878700E-15   0.00000000000000E+00   0.00000000000000E+00
      0.00000000000000E+00   0.00000000000000E+00  -5.44155211932097E-17  -2.87410595337155E-26  -5.44155212219508E-17
      2.58509052764332E-15   8.77333333333333E-01   8.77333333333333E-01   0.00000000000000E+00   0.00000000000000E+00
      2.04926761891200E-15   5.67232202103320E-20   2.04932434213221E-15   4.19910870766558E-15   1.00000000000000E+00
      1.00000000000000E+00   0.00000000000000E+00   0.00000000000000E+00   0.00000000000000E+00   0.00000000000000E+00
      0.00000000000000E+00   1.50137619347811E-15
      3.17444444444444E-01
      0.00000000000000E+00   0.00000000000000E+00   0.00000000000000E+00   0.00000000000000E+00  -1.74678686445451E-19
     -2.05465061361349E-15  -2.05482529229994E-15  -8.39674654364771E-15   0.00000000000000E+00   0.00000000000000E+00
      0.00000000000000E+00   0.00000000000000E+00  -5.43877146130527E-17  -4.57237175485733E-26  -5.43877146587764E-17
      2.58509052764330E-15   9.52333333333333E-01   9.52333333333333E-01   0.00000000000000E+00   0.00000000000000E+00
      2.10915627510084E-15   5.67318578731254E-20   2.10921300695871E-15   4.31471104178454E-15   1.00000000000000E+00
      1.00000000000000E+00   0.00000000000000E+00   0.00000000000000E+00   0.00000000000000E+00   0.00000000000000E+00
      0.00000000000000E+00   1.49694497421988E-15
      3.42444444444444E-01
      0.00000000000000E+00   0.00000000000000E+00   0.00000000000000E+00   0.00000000000000E+00   2.42726659614420E-18
     -2.09528053231234E-15  -2.09285326571620E-15  -8.50573861390213E-15   0.00000000000000E+00   0.00000000000000E+00
      0.00000000000000E+00   0.00000000000000E+00  -5.71804061848879E-17   4.02124722870952E-27  -5.71804061808666E-17
      2.58509052764328E-15   1.02733333333333E+00   1.02733333333333E+00   0.00000000000000E+00   0.00000000000000E+00
      2.14997692949021E-15   5.67424068570241E-20   2.15003367189707E-15   4.42813770061404E-15   1.00000000000000E+00
      1.00000000000000E+00   0.00000000000000E+00   0.00000000000000E+00   0.00000000000000E+00   0.00000000000000E+00
      0.00000000000000E+00   1.49251038564481E-15
      3.67444444444445E-01
      0.00000000000000E+00   0.00000000000000E+00   0.00000000000000E+00   0.00000000000000E+00   2.76382928759641E-18
     -2.12145647721460E-15  -2.11869264792700E-15  -8.61341943664591E-15   0.00000000000000E+00   0.00000000000000E+00
      0.00000000000000E+00   0.00000000000000E+00  -5.76290737377665E-17   1.91310850023550E-28  -5.76290737375752E-17
      2.58509052764327E-15   1.10233333333333E+00   1.10233333333333E+00   0.00000000000000E+00   0.00000000000000E+00
      2.17626496967309E-15   5.67519914952028E-20   2.17632172166458E-15   4.54026148968742E-15   1.00000000000000E+00
      1.00000000000000E+00   0.00000000000000E+00   0.00000000000000E+00   0.00000000000000E+00   0.00000000000000E+00
      0.00000000000000E+00   1.48806741931524E-15
      3.92444444444445E-01
      0.00000000000000E+00   0.00000000000000E+00   0.00000000000000E+00   0.00000000000000E+00   2.35706396732848E-18
     -2.13913513246476E-15  -2.13677806849743E-15  -8.72029629603761E-15   0.00000000000000E+00   0.00000000000000E+00
      0.00000000000000E+00   0.00000000000000E+00  -5.72793448908016E-17  -3.68446754202767E-26  -5.72793449276463E-17
      2.58509052764326E-15   1.17733333333333E+00   1.17733333333333E+00   0.00000000000000E+00   0.00000000000000E+00
      2.19400065202489E-15   5.67614001777551E-20   2.19405741342507E-15   4.65159171291889E-15   1.00000000000000E+00
      1.00000000000000E+00   0.00000000000000E+00   0.00000000000000E+00   0.00000000000000E+00   0.00000000000000E+00
      0.00000000000000E+00   1.48361405547547E-15
      4.17444444444445E-01
      0.00000000000000E+00   0.00000000000000E+00   0.00000000000000E+00   0.00000000000000E+00  -1.28904620713876E-18
     -2.15328358052870E-15  -2.15457262673584E-15  -8.82661253179900E-15   0.00000000000000E+00   0.00000000000000E+00
      0.00000000000000E+00   0.00000000000000E+00  -5.36924212494154E-17  -1.61294668294551E-26  -5.36924212655449E-17
      2.58509052764325E-15   1.25233333333333E+00   1.25233333333333E+00   0.00000000000000E+00   0.00000000000000E+00
      2.20820827708954E-15   5.67709118475766E-20   2.20826504800139E-15   4.76237247816067E-15   1.00000000000000E+00
      1.00000000000000E+00   0.00000000000000E+00   0.00000000000000E+00   0.00000000000000E+00   0.00000000000000E+00
      0.00000000000000E+00   1.47914952599508E-15
      4.42444444444445E-01
      0.00000000000000E+00   0.00000000000000E+00   0.00000000000000E+00   0.00000000000000E+00  -1.27090032279961E-18
     -2.16758240243687E-15  -2.16885330275967E-15  -8.93246605124188E-15   0.00000000000000E+00   0.00000000000000E+00
      0.00000000000000E+00   0.00000000000000E+00  -5.37686988145462E-17   1.02892778260242E-26  -5.37686988042570E-17
      2.58509052764325E-15   1.32733333333333E+00   1.32733333333333E+00   0.00000000000000E+00   0.00000000000000E+00
      2.22256522087751E-15   5.67806864149884E-20   2.22262200156393E-15   4.87270188366001E-15   1.00000000000000E+00
      1.00000000000000E+00   0.00000000000000E+00   0.00000000000000E+00   0.00000000000000E+00   0.00000000000000E+00
      0.00000000000000E+00   1.47467363993863E-15
      4.67444444444445E-01
      0.00000000000000E+00   0.00000000000000E+00   0.00000000000000E+00   0.00000000000000E+00  -1.21283371622077E-18
     -2.18436347488962E-15  -2.18557630860584E-15  -9.03788493743117E-15   0.00000000000000E+00   0.00000000000000E+00
      0.00000000000000E+00   0.00000000000000E+00  -5.38847728425633E-17  -4.46965627176173E-28  -5.38847728430103E-17
      2.58509052764324E-15   1.40233333333333E+00   1.40233333333333E+00   0.00000000000000E+00   0.00000000000000E+00
      2.23940429058931E-15   5.67908595317068E-20   2.23946108144885E-15   4.98260789600969E-15   1.00000000000000E+00
      1.00000000000000E+00   0.00000000000000E+00   0.00000000000000E+00   0.00000000000000E+00   0.00000000000000E+00
      0.00000000000000E+00   1.47018651377824E-15
      4.92444444444445E-01
      0.00000000000000E+00   0.00000000000000E+00   0.00000000000000E+00   0.00000000000000E+00  -1.21855690291079E-18
     -2.20676552005448E-15  -2.20798407695739E-15  -9.14286647609550E-15   0.00000000000000E+00   0.00000000000000E+00
      0.00000000000000E+00   0.00000000000000E+00  -5.39369163560760E-17  -4.11985435022016E-27  -5.39369163601959E-17
      2.58509052764323E-15   1.47733333333333E+00   1.47733333333333E+00   0.00000000000000E+00   0.00000000000000E+00
      2.26186419227429E-15   5.68010432894873E-20   2.26192099331758E-15   5.09208750010651E-15   1.00000000000000E+00
      1.00000000000000E+00   0.00000000000000E+00   0.00000000000000E+00   0.00000000000000E+00   0.00000000000000E+00
      0.00000000000000E+00   1.46568844834577E-15
      5.17444444444445E-01
      0.00000000000000E+00   0.00000000000000E+00   0.00000000000000E+00   0.00000000000000E+00   1.82547215055254E-18
     -2.23971848973998E-15  -2.23789301758943E-15  -9.24739541885673E-15   0.00000000000000E+00   0.00000000000000E+00
      0.00000000000000E+00   0.00000000000000E+00  -5.70386981536835E-17  -3.81081892038884E-26  -5.70386981917917E-17
      2.58509052764321E-15   1.55233333333333E+00   1.55233333333333E+00   0.00000000000000E+00   0.00000000000000E+00
      2.29487490482960E-15   5.68109516273032E-20   2.29493171578123E-15   5.20112503930686E-15   1.00000000000000E+00
      1.00000000000000E+00   0.00000000000000E+00   0.00000000000000E+00   0.00000000000000E+00   0.00000000000000E+00
      0.00000000000000E+00   1.46117985190665E-15
      5.42444444444445E-01
      0.00000000000000E+00   0.00000000000000E+00   0.00000000000000E+00   0.00000000000000E+00   1.39341455399512E-18
     -2.28748322309666E-15  -2.28608980854267E-15  -9.35145164536124E-15   0.00000000000000E+00   0.00000000000000E+00
      0.00000000000000E+00   0.00000000000000E+00  -5.66642587474801E-17  -9.77717922631770E-27  -5.66642587572573E-17
      2.58509052764319E-15   1.62733333333333E+00   1.62733333333333E+00   0.00000000000000E+00   0.00000000000000E+00
      2.34269724678119E-15   5.68205187346482E-20   2.34275406729992E-15   5.30969994994829E-15   1.00000000000000E+00
      1.00000000000000E+00   0.00000000000000E+00   0.00000000000000E+00   0.00000000000000E+00   0.00000000000000E+00
      0.00000000000000E+00   1.45666116776976E-15
      5.67444444444445E-01
      0.00000000000000E+00   0.00000000000000E+00   0.00000000000000E+00   0.00000000000000E+00   5.61506128325499E-19
     -2.35332557705502E-15  -2.35276407092670E-15  -9.45501259651681E-15   0.00000000000000E+00   0.00000000000000E+00
      0.00000000000000E+00   0.00000000000000E+00  -5.58898202791435E-17  -1.84037455537897E-26  -5.58898202975473E-17
      2.58509052764316E-15   1.70233333333333E+00   1.70233333333333E+00   0.00000000000000E+00   0.00000000000000E+00
      2.40859706145984E-15   5.68297644005771E-20   2.40865389122424E-15   5.41778925607958E-15   1.00000000000000E+00
      1.00000000000000E+00   0.00000000000000E+00   0.00000000000000E+00   0.00000000000000E+00   0.00000000000000E+00
      0.00000000000000E+00   1.45213281279408E-15
      5.92444444444445E-01
      0.00000000000000E+00   0.00000000000000E+00   0.00000000000000E+00   0.00000000000000E+00   1.96513565901911E-19
     -2.44409087178322E-15  -2.44389435821732E-15  -9.55805253989202E-15   0.00000000000000E+00   0.00000000000000E+00
      0.00000000000000E+00   0.00000000000000E+00  -5.55821384530181E-17   2.54509710973288E-26  -5.55821384275671E-17
      2.58509052764313E-15   1.77733333333333E+00   1.77733333333333E+00   0.00000000000000E+00   0.00000000000000E+00
      2.49941965792948E-15   5.68387154056714E-20   2.49947649664489E-15   5.52536685667196E-15   1.00000000000000E+00
      1.00000000000000E+00   0.00000000000000E+00   0.00000000000000E+00   0.00000000000000E+00   0.00000000000000E+00
      0.00000000000000E+00   1.44759515557696E-15
      6.17444444444445E-01
      0.00000000000000E+00   0.00000000000000E+00   0.00000000000000E+00   0.00000000000000E+00   1.58752446445103E-18
     -2.56796075398179E-15  -2.56637322951734E-15  -9.66053840381598E-15   0.00000000000000E+00   0.00000000000000E+00
      0.00000000000000E+00   0.00000000000000E+00  -5.70299414198108E-17   3.42698658647942E-26  -5.70299413855409E-17
      2.58509052764301E-15   1.85233333333333E+00   1.85233333333333E+00   0.00000000000000E+00   0.00000000000000E+00
      2.62334633193238E-15   5.68389704942072E-20   2.62340317090288E-15   5.63239933860664E-15   1.00000000000000E+00
      1.00000000000000E+00   0.00000000000000E+00   0.00000000000000E+00   0.00000000000000E+00   0.00000000000000E+00
      0.00000000000000E+00   1.44304853756634E-15
      6.42444444444445E-01
      0.00000000000000E+00   0.00000000000000E+00   0.00000000000000E+00   0.00000000000000E+00   3.44288046730201E-18
     -2.72064076294336E-15  -2.71719788247606E-15  -9.76242191443118E-15   0.00000000000000E+00   0.00000000000000E+00
      0.00000000000000E+00   0.00000000000000E+00  -5.89420557377417E-17  -6.51141985937933E-26  -5.89420558028559E-17
      2.58509052764306E-15   1.92733333333333E+00   1.92733333333333E+00   0.00000000000000E+00   0.00000000000000E+00
      2.77608308385300E-15   5.68544259113740E-20   2.77613993827891E-15   5.73883807981378E-15   1.00000000000000E+00
      1.00000000000000E+00   0.00000000000000E+00   0.00000000000000E+00   0.00000000000000E+00   0.00000000000000E+00
      0.00000000000000E+00   1.43849330697434E-15
      6.67444444444445E-01
      0.00000000000000E+00   0.00000000000000E+00   0.00000000000000E+00   0.00000000000000E+00   9.18134243134911E-19
     -2.87415953261565E-15  -2.87324139837252E-15  -9.86362941074069E-15   0.00000000000000E+00   0.00000000000000E+00
      0.00000000000000E+00   0.00000000000000E+00  -5.64727446523494E-17  -1.86954928905523E-26  -5.64727446710449E-17
      2.58509052764311E-15   2.00233333333333E+00   2.00233333333333E+00   0.00000000000000E+00   0.00000000000000E+00
      2.92965727937547E-15   5.68636680926117E-20   2.92971414304356E-15   5.84460904739045E-15   1.00000000000000E+00
      1.00000000000000E+00   0.00000000000000E+00   0.00000000000000E+00   0.00000000000000E+00   0.00000000000000E+00
      0.00000000000000E+00   1.43392983570715E-15
      6.92444444444445E-01
      0.00000000000000E+00   0.00000000000000E+00   0.00000000000000E+00   0.00000000000000E+00  -1.07787547255553E-19
     -2.99212680223501E-15  -2.99223458978226E-15  -9.96405118432738E-15   0.00000000000000E+00   0.00000000000000E+00
      0.00000000000000E+00   0.00000000000000E+00  -5.55028415366272E-17   6.32385321141405E-27  -5.55028415303034E-17
      2.58509052764322E-15   2.07733333333333E+00   2.07733333333333E+00   0.00000000000000E+00   0.00000000000000E+00
      3.04768055952301E-15   5.68717895591185E-20   3.04773743131256E-15   5.94960214492218E-15   1.00000000000000E+00
      1.00000000000000E+00   0.00000000000000E+00   0.00000000000000E+00   0.00000000000000E+00   0.00000000000000E+00
      0.00000000000000E+00   1.42935851176200E-15
      7.17444444444445E-01
      0.00000000000000E+00   0.00000000000000E+00   0.00000000000000E+00   0.00000000000000E+00  -2.04243884451906E-18
     -3.06408256340360E-15  -3.06612500224811E-15  -1.00635312190310E-14   0.00000000000000E+00   0.00000000000000E+00
      0.00000000000000E+00   0.00000000000000E+00  -5.36260290104876E-17   1.20694035356308E-26  -5.36260289984182E-17
      2.58509052764347E-15   2.15233333333333E+00   2.15233333333333E+00   0.00000000000000E+00   0.00000000000000E+00
      3.11969415205373E-15   5.68791928070357E-20   3.11975103124653E-15   6.05366097626474E-15   1.00000000000000E+00
      1.00000000000000E+00   0.00000000000000E+00   0.00000000000000E+00   0.00000000000000E+00   0.00000000000000E+00
      0.00000000000000E+00   1.42477971512276E-15
      7.42444444444445E-01
      0.00000000000000E+00   0.00000000000000E+00   0.00000000000000E+00   0.00000000000000E+00  -3.34836619250612E-18
     -3.10473460868630E-15  -3.10808297487881E-15  -1.01618585131524E-14   0.00000000000000E+00   0.00000000000000E+00
      0.00000000000000E+00   0.00000000000000E+00  -5.23771225748831E-17   8.91339303092455E-27  -5.23771225659697E-17
      2.58509052764288E-15   2.22733333333333E+00   2.22733333333333E+00   0.00000000000000E+00   0.00000000000000E+00
      3.16040321025901E-15   5.68871857677039E-20   3.16046009744477E-15   6.15657419693794E-15   1.00000000000000E+00
      1.00000000000000E+00   0.00000000000000E+00   0.00000000000000E+00   0.00000000000000E+00   0.00000000000000E+00
      0.00000000000000E+00   1.42019378857163E-15
      7.67444444444445E-01
      0.00000000000000E+00   0.00000000000000E+00   0.00000000000000E+00   0.00000000000000E+00   9.31086780343823E-20
     -3.12973854260194E-15  -3.12964543392390E-15  -1.02587649210125E-14   0.00000000000000E+00   0.00000000000000E+00
      0.00000000000000E+00   0.00000000000000E+00  -5.58744486224535E-17  -2.39044787564767E-26  -5.58744486463580E-17
      2.58509052764287E-15   2.30233333333333E+00   2.30233333333333E+00   0.00000000000000E+00   0.00000000000000E+00
      3.18546298812075E-15   5.68944495109722E-20   3.18551988257026E-15   6.25807338072228E-15   1.00000000000000E+00
      1.00000000000000E+00   0.00000000000000E+00   0.00000000000000E+00   0.00000000000000E+00   0.00000000000000E+00
      0.00000000000000E+00   1.41560101264740E-15
      7.92444444444445E-01
      0.00000000000000E+00   0.00000000000000E+00   0.00000000000000E+00   0.00000000000000E+00  -8.56745016912804E-20
     -3.14656054337786E-15  -3.14664621787955E-15  -1.03539413444396E-14   0.00000000000000E+00   0.00000000000000E+00
      0.00000000000000E+00   0.00000000000000E+00  -5.57512635677696E-17   1.49203332586874E-26  -5.57512635528493E-17
      2.58509052764286E-15   2.37733333333333E+00   2.37733333333333E+00   0.00000000000000E+00   0.00000000000000E+00
      3.20234057996699E-15   5.69014654128432E-20   3.20239748143240E-15   6.35784922671558E-15   1.00000000000000E+00
      1.00000000000000E+00   0.00000000000000E+00   0.00000000000000E+00   0.00000000000000E+00   0.00000000000000E+00
      0.00000000000000E+00   1.41100159008121E-15
      8.17444444444445E-01
      0.00000000000000E+00   0.00000000000000E+00   0.00000000000000E+00   0.00000000000000E+00  -9.17474684612037E-20
     -3.15818339361919E-15  -3.15827514108766E-15  -1.04470885921716E-14   0.00000000000000E+00   0.00000000000000E+00
      0.00000000000000E+00   0.00000000000000E+00  -5.58005318597336E-17  -4.02942909627359E-26  -5.58005319000279E-17
      2.58509052764286E-15   2.45233333333333E+00   2.45233333333333E+00   0.00000000000000E+00   0.00000000000000E+00
      3.21401876477029E-15   5.69082173898808E-20   3.21407567298768E-15   6.45560242358713E-15   1.00000000000000E+00
      1.00000000000000E+00   0.00000000000000E+00   0.00000000000000E+00   0.00000000000000E+00   0.00000000000000E+00
      0.00000000000000E+00   1.40639564094160E-15
      8.42444444444445E-01
      0.00000000000000E+00   0.00000000000000E+00   0.00000000000000E+00   0.00000000000000E+00  -6.32868233832400E-19
     -3.16699621539126E-15  -3.16762908362509E-15  -1.05380089738158E-14   0.00000000000000E+00   0.00000000000000E+00
      0.00000000000000E+00   0.00000000000000E+00  -5.53144943256456E-17   1.94956834730468E-26  -5.53144943061499E-17
      2.58509052764285E-15   2.52733333333333E+00   2.52733333333333E+00   0.00000000000000E+00   0.00000000000000E+00
      3.22288666323861E-15   5.69146926272325E-20   3.22294357793124E-15   6.55113524022816E-15   1.00000000000000E+00
      1.00000000000000E+00   0.00000000000000E+00   0.00000000000000E+00   0.00000000000000E+00   0.00000000000000E+00
      0.00000000000000E+00   1.40178320594482E-15
      8.67444444444445E-01
      0.00000000000000E+00   0.00000000000000E+00   0.00000000000000E+00   0.00000000000000E+00  -2.55694835714460E-19