DF-ISE text

Info {
  version   = 1.0
  type      = xyplot
  datasets  = [
    "time"
    "substrate OuterVoltage" "substrate InnerVoltage" "substrate QuasiFermiPotential" "substrate DisplacementCurrent" "substrate eCurrent"
    "substrate hCurrent" "substrate TotalCurrent" "substrate Charge" "source OuterVoltage" "source InnerVoltage"
    "source QuasiFermiPotential" "source DisplacementCurrent" "source eCurrent" "source hCurrent" "source TotalCurrent"
    "source Charge" "drain OuterVoltage" "drain InnerVoltage" "drain QuasiFermiPotential" "drain DisplacementCurrent"
    "drain eCurrent" "drain hCurrent" "drain TotalCurrent" "drain Charge" "gate OuterVoltage"
    "gate InnerVoltage" "gate QuasiFermiPotential" "gate DisplacementCurrent" "gate eCurrent" "gate hCurrent"
    "gate TotalCurrent" "gate Charge" ]
  functions = [
    Time
    OuterVoltage InnerVoltage QuasiFermiPotential DisplacementCurrent eCurrent
    hCurrent TotalCurrent Charge OuterVoltage InnerVoltage
    QuasiFermiPotential DisplacementCurrent eCurrent hCurrent TotalCurrent
    Charge OuterVoltage InnerVoltage QuasiFermiPotential DisplacementCurrent
    eCurrent hCurrent TotalCurrent Charge OuterVoltage
    InnerVoltage QuasiFermiPotential DisplacementCurrent eCurrent hCurrent
    TotalCurrent Charge ]
}

Data {
      0.00000000000000E+00
      0.00000000000000E+00   0.00000000000000E+00   0.00000000000000E+00   0.00000000000000E+00  -2.22902624152215E-19
     -1.93309364148694E-28  -2.22902624345525E-19  -2.70326605115526E-15   0.00000000000000E+00   0.00000000000000E+00
      0.00000000000000E+00   0.00000000000000E+00   9.79745431999531E-20   3.60613182721522E-28   9.79745435605663E-20
      1.05755865621003E-15   0.00000000000000E+00   0.00000000000000E+00   0.00000000000000E+00   0.00000000000000E+00
      1.24928080952192E-19  -1.67233537550305E-28   1.24928080784958E-19   1.05755865621003E-15   1.00000000000000E+00
      1.00000000000000E+00   0.00000000000000E+00   0.00000000000000E+00   0.00000000000000E+00   0.00000000000000E+00
      0.00000000000000E+00   5.88148738735210E-16
      1.00000000000000E-02
      0.00000000000000E+00   0.00000000000000E+00   0.00000000000000E+00   0.00000000000000E+00   2.41305501691216E-16
     -2.50803311001499E-17   2.16225170591066E-16  -2.72885201726873E-15   0.00000000000000E+00   0.00000000000000E+00
      0.00000000000000E+00   0.00000000000000E+00  -1.58004452952062E-16  -4.18510284090992E-28  -1.58004452952481E-16
      1.05755864354079E-15   3.00000000000000E-02   3.00000000000000E-02   0.00000000000000E+00   0.00000000000000E+00
     -5.82354651529653E-17   1.47475143799522E-20  -5.82207176385853E-17   1.08707395491767E-15   1.00000000000000E+00
      1.00000000000000E+00   0.00000000000000E+00   0.00000000000000E+00   0.00000000000000E+00   0.00000000000000E+00
      0.00000000000000E+00   5.84219418810263E-16
      2.33333333333333E-02
      0.00000000000000E+00   0.00000000000000E+00   0.00000000000000E+00   0.00000000000000E+00  -2.97955872339391E-14
     -4.76231178594808E-17  -2.98432103517985E-14  -2.76280365398531E-15   0.00000000000000E+00   0.00000000000000E+00
      0.00000000000000E+00   0.00000000000000E+00  -2.00310555926365E-16  -1.35553111206505E-27  -2.00310555927720E-16
      1.05755862628867E-15   7.00000000000000E-02   7.00000000000000E-02   0.00000000000000E+00   0.00000000000000E+00
      3.00434963484577E-14   2.45592685556125E-20   3.00435209077263E-14   1.12625213784883E-15   1.00000000000000E+00
      1.00000000000000E+00   0.00000000000000E+00   0.00000000000000E+00   0.00000000000000E+00   0.00000000000000E+00
      0.00000000000000E+00   5.78992889847807E-16
      4.28888888888889E-02
      0.00000000000000E+00   0.00000000000000E+00   0.00000000000000E+00   0.00000000000000E+00  -2.71470340156664E-19
     -7.46537793324771E-17  -7.49252496726337E-17  -2.81227336430581E-15   0.00000000000000E+00   0.00000000000000E+00
      0.00000000000000E+00   0.00000000000000E+00  -2.05591164617101E-16  -6.81978275333990E-28  -2.05591164617782E-16
      1.05755860020987E-15   1.28666666666667E-01   1.28666666666667E-01   0.00000000000000E+00   0.00000000000000E+00
      2.80490747413154E-16   2.56668772623428E-20   2.80516414290416E-16   1.18336657325733E-15   1.00000000000000E+00
      1.00000000000000E+00   0.00000000000000E+00   0.00000000000000E+00   0.00000000000000E+00   0.00000000000000E+00
      0.00000000000000E+00   5.71348190838604E-16
      6.78888888888889E-02
      0.00000000000000E+00   0.00000000000000E+00   0.00000000000000E+00   0.00000000000000E+00  -1.10754675411892E-19
     -1.13426790224419E-16  -1.13537544899831E-16  -2.87493071103856E-15   0.00000000000000E+00   0.00000000000000E+00
      0.00000000000000E+00   0.00000000000000E+00  -2.09634522447879E-16   9.18195359947274E-29  -2.09634522447787E-16
      1.05755856546181E-15   2.03666666666667E-01   2.03666666666667E-01   0.00000000000000E+00   0.00000000000000E+00
      3.23149298390141E-16   2.27689574765784E-20   3.23172067347618E-16   1.25577072232665E-15   1.00000000000000E+00
      1.00000000000000E+00   0.00000000000000E+00   0.00000000000000E+00   0.00000000000000E+00   0.00000000000000E+00
      0.00000000000000E+00   5.61601423250105E-16
      9.28888888888889E-02
      0.00000000000000E+00   0.00000000000000E+00   0.00000000000000E+00   0.00000000000000E+00  -5.96554569831954E-19
     -1.70398838395456E-16  -1.70995392965288E-16  -2.93687628982443E-15   0.00000000000000E+00   0.00000000000000E+00
      0.00000000000000E+00   0.00000000000000E+00  -2.12472918167207E-16   3.20313982405395E-28  -2.12472918166886E-16
      1.05755852905776E-15   2.78666666666667E-01   2.78666666666667E-01   0.00000000000000E+00   0.00000000000000E+00
      3.83431033624491E-16   3.72775076830674E-20   3.83468311132175E-16   1.32744382576282E-15   1.00000000000000E+00
      1.00000000000000E+00   0.00000000000000E+00   0.00000000000000E+00   0.00000000000000E+00   0.00000000000000E+00
      0.00000000000000E+00   5.51873935003854E-16
      1.17888888888889E-01
      0.00000000000000E+00   0.00000000000000E+00   0.00000000000000E+00   0.00000000000000E+00   1.57555082494047E-19
     -2.50627893416447E-16  -2.50470338333953E-16  -2.99804447685664E-15   0.00000000000000E+00   0.00000000000000E+00
      0.00000000000000E+00   0.00000000000000E+00  -2.16337476696533E-16  -2.63061062034089E-28  -2.16337476696796E-16
      1.05755849092981E-15   3.53666666666667E-01   3.53666666666667E-01   0.00000000000000E+00   0.00000000000000E+00
      4.66698853950130E-16   1.08961080619432E-19   4.66807815030749E-16   1.39832806143347E-15   1.00000000000000E+00
      1.00000000000000E+00   0.00000000000000E+00   0.00000000000000E+00   0.00000000000000E+00   0.00000000000000E+00
      0.00000000000000E+00   5.42157924493364E-16
      1.42888888888889E-01
      0.00000000000000E+00   0.00000000000000E+00   0.00000000000000E+00   0.00000000000000E+00  -1.77801881367664E-20
     -3.39307073495952E-16  -3.39324853684089E-16  -3.05835741959399E-15   0.00000000000000E+00   0.00000000000000E+00
      0.00000000000000E+00   0.00000000000000E+00  -2.19373744786038E-16   6.08993976279551E-28  -2.19373744785429E-16
      1.05755845102215E-15   4.28666666666667E-01   4.28666666666667E-01   0.00000000000000E+00   0.00000000000000E+00
      5.58661746459687E-16   3.68520098315733E-20   5.58698598469518E-16   1.46835069379428E-15   1.00000000000000E+00
      1.00000000000000E+00   0.00000000000000E+00   0.00000000000000E+00   0.00000000000000E+00   0.00000000000000E+00
      0.00000000000000E+00   5.32448274777547E-16
      1.67888888888889E-01
      0.00000000000000E+00   0.00000000000000E+00   0.00000000000000E+00   0.00000000000000E+00  -2.35411679642297E-19
     -4.25132601059198E-16  -4.25368012738841E-16  -3.11770041169631E-15   0.00000000000000E+00   0.00000000000000E+00
      0.00000000000000E+00   0.00000000000000E+00  -2.22389962996041E-16   3.15388946620659E-28  -2.22389962995726E-16
      1.05755840929084E-15   5.03666666666667E-01   5.03666666666667E-01   0.00000000000000E+00   0.00000000000000E+00
      6.47588792353515E-16   1.69183381052534E-19   6.47757975734567E-16   1.53740010035756E-15   1.00000000000000E+00
      1.00000000000000E+00   0.00000000000000E+00   0.00000000000000E+00   0.00000000000000E+00   0.00000000000000E+00
      0.00000000000000E+00   5.22741902047903E-16
      1.92888888888889E-01
      0.00000000000000E+00   0.00000000000000E+00   0.00000000000000E+00   0.00000000000000E+00   6.04983172063700E-20
     -5.19293465090424E-16  -5.19232966773217E-16  -3.17589985942310E-15   0.00000000000000E+00   0.00000000000000E+00
      0.00000000000000E+00   0.00000000000000E+00  -2.25868095018276E-16  -6.31276418210787E-28  -2.25868095018907E-16
      1.05755836570306E-15   5.78666666666667E-01   5.78666666666667E-01   0.00000000000000E+00   0.00000000000000E+00
      7.45006074872905E-16   9.49869192197986E-20   7.45101061792125E-16   1.60530429962952E-15   1.00000000000000E+00
      1.00000000000000E+00   0.00000000000000E+00   0.00000000000000E+00   0.00000000000000E+00   0.00000000000000E+00
      0.00000000000000E+00   5.13037194090523E-16
      2.17888888888889E-01
      0.00000000000000E+00   0.00000000000000E+00   0.00000000000000E+00   0.00000000000000E+00   2.41092321028278E-19
     -6.17349412135238E-16  -6.17108319814210E-16  -3.23271861446203E-15   0.00000000000000E+00   0.00000000000000E+00
      0.00000000000000E+00   0.00000000000000E+00  -2.29210435684967E-16   1.47482995919098E-28  -2.29210435684820E-16
      1.05755832023409E-15   6.53666666666667E-01   6.53666666666667E-01   0.00000000000000E+00   0.00000000000000E+00
      8.46295816813738E-16   2.29386852921512E-20   8.46318755499030E-16   1.67182680358414E-15   1.00000000000000E+00
      1.00000000000000E+00   0.00000000000000E+00   0.00000000000000E+00   0.00000000000000E+00   0.00000000000000E+00
      0.00000000000000E+00   5.03333490643799E-16
      2.42888888888889E-01
      0.00000000000000E+00   0.00000000000000E+00   0.00000000000000E+00   0.00000000000000E+00   4.43219115617882E-20
     -6.86368878453288E-16  -6.86324556541726E-16  -3.28789409009442E-15   0.00000000000000E+00   0.00000000000000E+00
      0.00000000000000E+00   0.00000000000000E+00  -2.32178324363158E-16  -3.40716437605282E-28  -2.32178324363498E-16
      1.05755827286187E-15   7.28666666666667E-01   7.28666666666667E-01   0.00000000000000E+00   0.00000000000000E+00
      9.18765729326212E-16  -2.62848420986740E-19   9.18502880905225E-16   1.73670520193989E-15   1.00000000000000E+00
      1.00000000000000E+00   0.00000000000000E+00   0.00000000000000E+00   0.00000000000000E+00   0.00000000000000E+00
      0.00000000000000E+00   4.93630615292660E-16
      2.67888888888889E-01
      0.00000000000000E+00   0.00000000000000E+00   0.00000000000000E+00   0.00000000000000E+00   3.13648758123728E-19
     -7.26906398390821E-16  -7.26592749632697E-16  -3.34125501360254E-15   0.00000000000000E+00   0.00000000000000E+00
      0.00000000000000E+00   0.00000000000000E+00  -2.35588646748046E-16  -1.43014336310836E-27  -2.35588646749476E-16
      1.05755822356177E-15   8.03666666666667E-01   8.03666666666667E-01   0.00000000000000E+00   0.00000000000000E+00
      9.63090722490498E-16  -9.09326108323834E-19   9.62181396382174E-16   1.79976826952600E-15   1.00000000000000E+00
      1.00000000000000E+00   0.00000000000000E+00   0.00000000000000E+00   0.00000000000000E+00   0.00000000000000E+00
      0.00000000000000E+00   4.83928520514766E-16
      2.92888888888889E-01
      0.00000000000000E+00   0.00000000000000E+00   0.00000000000000E+00   0.00000000000000E+00   2.07350316540956E-19
     -7.53633807663789E-16  -7.53426457347248E-16  -3.39287523926256E-15   0.00000000000000E+00   0.00000000000000E+00
      0.00000000000000E+00   0.00000000000000E+00  -2.38612738218022E-16   1.00701854879361E-27  -2.38612738217015E-16
      1.05755817230434E-15   8.78666666666667E-01   8.78666666666667E-01   0.00000000000000E+00   0.00000000000000E+00
      9.92020865988320E-16   1.83295759433492E-20   9.92039195564263E-16   1.86108996880154E-15   1.00000000000000E+00
      1.00000000000000E+00   0.00000000000000E+00   0.00000000000000E+00   0.00000000000000E+00   0.00000000000000E+00
      0.00000000000000E+00   4.74227098156672E-16
      3.17888888888889E-01
      0.00000000000000E+00   0.00000000000000E+00   0.00000000000000E+00   0.00000000000000E+00  -4.44962453672063E-19
     -7.70880217348769E-16  -7.71325179802441E-16  -3.44308505382627E-15   0.00000000000000E+00   0.00000000000000E+00
      0.00000000000000E+00   0.00000000000000E+00  -2.41082683213907E-16   5.76081940384572E-28  -2.41082683213330E-16
      1.05755811905684E-15   9.53666666666667E-01   9.53666666666667E-01   0.00000000000000E+00   0.00000000000000E+00
      1.01238377745385E-15   2.40855619205010E-20   1.01240786301577E-15   1.92100078423816E-15   1.00000000000000E+00
      1.00000000000000E+00   0.00000000000000E+00   0.00000000000000E+00   0.00000000000000E+00   0.00000000000000E+00
      0.00000000000000E+00   4.64526150531260E-16
      3.42888888888889E-01
      0.00000000000000E+00   0.00000000000000E+00   0.00000000000000E+00   0.00000000000000E+00  -3.96554594343422E-19
     -7.84701356514593E-16  -7.85097911108936E-16  -3.49229203481457E-15   0.00000000000000E+00   0.00000000000000E+00
      0.00000000000000E+00   0.00000000000000E+00  -2.44247866182383E-16   7.07817939161773E-28  -2.44247866181675E-16
      1.05755806378727E-15   1.02866666666667E+00   1.02866666666667E+00   0.00000000000000E+00   0.00000000000000E+00
      1.02932245342489E-15   2.33238657200039E-20   1.02934577729061E-15   1.97990851452430E-15   1.00000000000000E+00
      1.00000000000000E+00   0.00000000000000E+00   0.00000000000000E+00   0.00000000000000E+00   0.00000000000000E+00
      0.00000000000000E+00   4.54825456503000E-16
      3.67888888888889E-01
      0.00000000000000E+00   0.00000000000000E+00   0.00000000000000E+00   0.00000000000000E+00  -1.85892934701878E-19
     -7.97006166486575E-16  -7.97192059421277E-16  -3.54082120001962E-15   0.00000000000000E+00   0.00000000000000E+00
      0.00000000000000E+00   0.00000000000000E+00  -2.47568215430399E-16  -6.29409010271026E-28  -2.47568215431029E-16
      1.05755800646800E-15   1.10366666666667E+00   1.10366666666667E+00   0.00000000000000E+00   0.00000000000000E+00
      1.04473731572375E-15   2.29591285535385E-20   1.04476027485231E-15   2.03813834802972E-15   1.00000000000000E+00
      1.00000000000000E+00   0.00000000000000E+00   0.00000000000000E+00   0.00000000000000E+00   0.00000000000000E+00
      0.00000000000000E+00   4.45124845521900E-16
      3.92888888888889E-01
      0.00000000000000E+00   0.00000000000000E+00   0.00000000000000E+00   0.00000000000000E+00  -2.26224852781949E-19
     -8.07519667099185E-16  -8.07745891951967E-16  -3.58887837921410E-15   0.00000000000000E+00   0.00000000000000E+00
      0.00000000000000E+00   0.00000000000000E+00  -2.50633620827708E-16   5.56497332054507E-28  -2.50633620827152E-16
      1.05755794707698E-15   1.17866666666667E+00   1.17866666666667E+00   0.00000000000000E+00   0.00000000000000E+00
      1.05835656164260E-15   2.29511365178183E-20   1.05837951277912E-15   2.09589620858995E-15   1.00000000000000E+00
      1.00000000000000E+00   0.00000000000000E+00   0.00000000000000E+00   0.00000000000000E+00   0.00000000000000E+00
      0.00000000000000E+00   4.35424223547169E-16
      4.17888888888889E-01
      0.00000000000000E+00   0.00000000000000E+00   0.00000000000000E+00   0.00000000000000E+00   3.07278494073627E-17
     -8.15402968518032E-16  -7.84675119110670E-16  -3.63657608936158E-15   0.00000000000000E+00   0.00000000000000E+00
      0.00000000000000E+00   0.00000000000000E+00  -2.53960724362036E-16  -1.81875536127109E-28  -2.53960724362218E-16
      1.05755788559629E-15   1.25366666666667E+00   1.25366666666667E+00   0.00000000000000E+00   0.00000000000000E+00
      1.03861294605211E-15   2.28974207762616E-20   1.03863584347289E-15   2.15329465682607E-15   1.00000000000000E+00
      1.00000000000000E+00   0.00000000000000E+00   0.00000000000000E+00   0.00000000000000E+00   0.00000000000000E+00
      0.00000000000000E+00   4.25723546939215E-16
      4.42888888888889E-01
      0.00000000000000E+00   0.00000000000000E+00   0.00000000000000E+00   0.00000000000000E+00   1.19347357953374E-17
     -8.21462975921196E-16  -8.09528240125859E-16  -3.68396770879301E-15   0.00000000000000E+00   0.00000000000000E+00
      0.00000000000000E+00   0.00000000000000E+00  -2.57160900434064E-16  -1.93028833463997E-27  -2.57160900435994E-16
      1.05755782200895E-15   1.32866666666667E+00   1.32866666666667E+00   0.00000000000000E+00   0.00000000000000E+00
      1.06666811571732E-15   2.10248445353760E-20   1.06668914056185E-15   2.21038711610623E-15   1.00000000000000E+00
      1.00000000000000E+00   0.00000000000000E+00   0.00000000000000E+00   0.00000000000000E+00   0.00000000000000E+00
      0.00000000000000E+00   4.16022770677818E-16
      4.67888888888889E-01
      0.00000000000000E+00   0.00000000000000E+00   0.00000000000000E+00   0.00000000000000E+00   4.58691556305601E-18
     -8.28122550068483E-16  -8.23535634505427E-16  -3.73107346260681E-15   0.00000000000000E+00   0.00000000000000E+00
      0.00000000000000E+00   0.00000000000000E+00  -2.60249049794097E-16   1.43467901447200E-27  -2.60249049792662E-16
      1.05755775629558E-15   1.40366666666667E+00   1.40366666666667E+00   0.00000000000000E+00   0.00000000000000E+00
      1.08376316312591E-15   2.15211721792881E-20   1.08378468429809E-15   2.26719391020957E-15   1.00000000000000E+00
      1.00000000000000E+00   0.00000000000000E+00   0.00000000000000E+00   0.00000000000000E+00   0.00000000000000E+00
      0.00000000000000E+00   4.06321796101653E-16
      4.92888888888889E-01
      0.00000000000000E+00   0.00000000000000E+00   0.00000000000000E+00   0.00000000000000E+00  -5.96029170518507E-20
     -8.37182528301216E-16  -8.37242131218268E-16  -3.77789745892037E-15   0.00000000000000E+00   0.00000000000000E+00
      0.00000000000000E+00   0.00000000000000E+00  -2.63189710452553E-16  -9.86202674038140E-28  -2.63189710453539E-16
      1.05755768843186E-15   1.47866666666667E+00   1.47866666666667E+00   0.00000000000000E+00   0.00000000000000E+00
      1.10040887607789E-15   2.29655939154455E-20   1.10043184167181E-15   2.32371934089421E-15   1.00000000000000E+00
      1.00000000000000E+00   0.00000000000000E+00   0.00000000000000E+00   0.00000000000000E+00   0.00000000000000E+00
      0.00000000000000E+00   3.96620429594305E-16
      5.17888888888889E-01
      0.00000000000000E+00   0.00000000000000E+00   0.00000000000000E+00   0.00000000000000E+00   2.31617100599683E-19
     -8.47966278167098E-16  -8.47734661066498E-16  -3.82443853081235E-15   0.00000000000000E+00   0.00000000000000E+00
      0.00000000000000E+00   0.00000000000000E+00  -2.66574263661042E-16  -7.82982543226281E-28  -2.66574263661825E-16
      1.05755761838632E-15   1.55366666666667E+00   1.55366666666667E+00   0.00000000000000E+00   0.00000000000000E+00
      1.11428595558995E-15   2.29691383729577E-20   1.11430892472832E-15   2.37996255610544E-15   1.00000000000000E+00
      1.00000000000000E+00   0.00000000000000E+00   0.00000000000000E+00   0.00000000000000E+00   0.00000000000000E+00
      0.00000000000000E+00   3.86918356320590E-16
      5.42888888888889E-01
      0.00000000000000E+00   0.00000000000000E+00   0.00000000000000E+00   0.00000000000000E+00  -1.86229097928489E-19
     -8.59267407439929E-16  -8.59453636537857E-16  -3.87069656556188E-15   0.00000000000000E+00   0.00000000000000E+00
      0.00000000000000E+00   0.00000000000000E+00  -2.69250605051830E-16  -5.38107763702668E-29  -2.69250605051884E-16
      1.05755754611972E-15   1.62866666666667E+00   1.62866666666667E+00   0.00000000000000E+00   0.00000000000000E+00
      1.12868126903868E-15   2.29725510639964E-20   1.12870424158974E-15   2.43592388300666E-15   1.00000000000000E+00
      1.00000000000000E+00   0.00000000000000E+00   0.00000000000000E+00   0.00000000000000E+00   0.00000000000000E+00
      0.00000000000000E+00   3.77215136435494E-16
      5.67888888888889E-01
      0.00000000000000E+00   0.00000000000000E+00   0.00000000000000E+00   0.00000000000000E+00  -2.50304716540745E-19
     -8.72984380472799E-16  -8.73234685189339E-16  -3.91667449948827E-15   0.00000000000000E+00   0.00000000000000E+00
      0.00000000000000E+00   0.00000000000000E+00  -2.72283278294835E-16  -1.16904592185608E-27  -2.72283278296004E-16
      1.05755747158581E-15   1.70366666666667E+00   1.70366666666667E+00   0.00000000000000E+00   0.00000000000000E+00
      1.14549498764374E-15   2.29758416028903E-20   1.14551796348534E-15   2.49160679350910E-15   1.00000000000000E+00
      1.00000000000000E+00   0.00000000000000E+00   0.00000000000000E+00   0.00000000000000E+00   0.00000000000000E+00
      0.00000000000000E+00   3.67510234393358E-16
      5.92888888888889E-01
      0.00000000000000E+00   0.00000000000000E+00   0.00000000000000E+00   0.00000000000000E+00   1.81250244753255E-19
     -8.94141311202263E-16  -8.93960060957510E-16  -3.96237639489411E-15   0.00000000000000E+00   0.00000000000000E+00
      0.00000000000000E+00   0.00000000000000E+00  -2.75776877906888E-16   1.76891609159340E-27  -2.75776877905119E-16
      1.05755739473339E-15   1.77866666666667E+00   1.77866666666667E+00   0.00000000000000E+00   0.00000000000000E+00
      1.16971396000507E-15   2.29788575559747E-20   1.16973693886263E-15   2.54701591801472E-15   1.00000000000000E+00
      1.00000000000000E+00   0.00000000000000E+00   0.00000000000000E+00   0.00000000000000E+00   0.00000000000000E+00
      0.00000000000000E+00   3.57803082145998E-16
      6.17888888888889E-01
      0.00000000000000E+00   0.00000000000000E+00   0.00000000000000E+00   0.00000000000000E+00  -1.76527578679499E-19
     -9.29599130255049E-16  -9.29775657833728E-16  -4.00780341824614E-15   0.00000000000000E+00   0.00000000000000E+00
      0.00000000000000E+00   0.00000000000000E+00  -2.78549578964152E-16   1.89787791227252E-27  -2.78549578962254E-16
      1.05755731551036E-15   1.85366666666667E+00   1.85366666666667E+00   0.00000000000000E+00   0.00000000000000E+00
      1.20830225498367E-15   2.29818123073795E-20   1.20832523679598E-15   2.60215294571308E-15   1.00000000000000E+00
      1.00000000000000E+00   0.00000000000000E+00   0.00000000000000E+00   0.00000000000000E+00   0.00000000000000E+00
      0.00000000000000E+00   3.48093157022692E-16
      6.42888888888889E-01
      0.00000000000000E+00   0.00000000000000E+00   0.00000000000000E+00   0.00000000000000E+00  -1.54486412536895E-19
     -9.81527889608202E-16  -9.81682376020738E-16  -4.05294986882015E-15   0.00000000000000E+00   0.00000000000000E+00
      0.00000000000000E+00   0.00000000000000E+00  -2.81696403151845E-16   7.38866284590154E-28  -2.81696403151106E-16
      1.05755723386537E-15   1.92866666666667E+00   1.92866666666667E+00   0.00000000000000E+00   0.00000000000000E+00
      1.26335579458813E-15   2.29845837136748E-20   1.26337877917184E-15   2.65701259218470E-15   1.00000000000000E+00
      1.00000000000000E+00   0.00000000000000E+00   0.00000000000000E+00   0.00000000000000E+00   0.00000000000000E+00
      0.00000000000000E+00   3.38380042770067E-16
      6.67888888888889E-01
      0.00000000000000E+00   0.00000000000000E+00   0.00000000000000E+00   0.00000000000000E+00   1.31727830130842E-19
     -1.03770375692964E-15  -1.03757202909951E-15  -4.09780018881406E-15   0.00000000000000E+00   0.00000000000000E+00
      0.00000000000000E+00   0.00000000000000E+00  -2.85111262798372E-16  -4.62937782425809E-28  -2.85111262798835E-16
      1.05755714975070E-15   2.00366666666667E+00   2.00366666666667E+00   0.00000000000000E+00   0.00000000000000E+00
      1.32266030438652E-15   2.29875118305263E-20   1.32268329189835E-15   2.71157958906074E-15   1.00000000000000E+00
      1.00000000000000E+00   0.00000000000000E+00   0.00000000000000E+00   0.00000000000000E+00   0.00000000000000E+00
      0.00000000000000E+00   3.28663450002623E-16
      6.92888888888889E-01
      0.00000000000000E+00   0.00000000000000E+00   0.00000000000000E+00   0.00000000000000E+00  -7.37622940418514E-21
     -1.08191801771734E-15  -1.08192539394674E-15  -4.14232664171074E-15   0.00000000000000E+00   0.00000000000000E+00
      0.00000000000000E+00   0.00000000000000E+00  -2.88108179967422E-16   1.59094486795376E-28  -2.88108179967263E-16
      1.05755706312206E-15   2.07866666666667E+00   2.07866666666667E+00   0.00000000000000E+00   0.00000000000000E+00
      1.37001058863163E-15   2.29852823763358E-20   1.37003357391401E-15   2.76582638560574E-15   1.00000000000000E+00
      1.00000000000000E+00   0.00000000000000E+00   0.00000000000000E+00   0.00000000000000E+00   0.00000000000000E+00
      0.00000000000000E+00   3.18943192982947E-16
      7.17888888888889E-01
      0.00000000000000E+00   0.00000000000000E+00   0.00000000000000E+00   0.00000000000000E+00  -5.50037334281267E-20
     -1.11172697145194E-15  -1.11178197518537E-15  -4.18648700012674E-15   0.00000000000000E+00   0.00000000000000E+00
      0.00000000000000E+00   0.00000000000000E+00  -2.91186785903252E-16  -9.78832411124327E-28  -2.91186785904231E-16
      1.05755697393749E-15   2.15366666666667E+00   2.15366666666667E+00   0.00000000000000E+00   0.00000000000000E+00
      1.40294577395834E-15   2.29871312517794E-20   1.40296876108960E-15   2.81971088898772E-15   1.00000000000000E+00
      1.00000000000000E+00   0.00000000000000E+00   0.00000000000000E+00   0.00000000000000E+00   0.00000000000000E+00
      0.00000000000000E+00   3.09219137201529E-16
      7.42888888888889E-01
      0.00000000000000E+00   0.00000000000000E+00   0.00000000000000E+00   0.00000000000000E+00   1.98495880314756E-19
     -1.13307790430609E-15  -1.13287940842578E-15  -4.23022196990170E-15   0.00000000000000E+00   0.00000000000000E+00
      0.00000000000000E+00   0.00000000000000E+00  -2.94679574396250E-16   2.67504847899612E-28  -2.94679574395982E-16
      1.05755688215571E-15   2.22866666666667E+00   2.22866666666667E+00   0.00000000000000E+00   0.00000000000000E+00
      1.42753598736705E-15   2.29954547083270E-20   1.42755898282176E-15   2.87317394905486E-15   1.00000000000000E+00
      1.00000000000000E+00   0.00000000000000E+00   0.00000000000000E+00   0.00000000000000E+00   0.00000000000000E+00
      0.00000000000000E+00   2.99491138691124E-16
      7.67888888888889E-01
      0.00000000000000E+00   0.00000000000000E+00   0.00000000000000E+00   0.00000000000000E+00  -1.99981682038502E-19
     -1.14973780436451E-15  -1.14993778604655E-15  -4.27345308493402E-15   0.00000000000000E+00   0.00000000000000E+00
      0.00000000000000E+00   0.00000000000000E+00  -2.97396052379348E-16   6.33586093417473E-28  -2.97396052378714E-16
      1.05755678773313E-15   2.30366666666667E+00   2.30366666666667E+00   0.00000000000000E+00   0.00000000000000E+00
      1.44731083988371E-15   2.29985415525032E-20   1.44733383842526E-15   2.92613730345725E-15   1.00000000000000E+00
      1.00000000000000E+00   0.00000000000000E+00   0.00000000000000E+00   0.00000000000000E+00   0.00000000000000E+00
      0.00000000000000E+00   2.89758993743649E-16
      7.92888888888889E-01
      0.00000000000000E+00   0.00000000000000E+00   0.00000000000000E+00   0.00000000000000E+00  -2.01163999791357E-19
     -1.16261461734607E-15  -1.16281578134586E-15  -4.31608391576856E-15   0.00000000000000E+00   0.00000000000000E+00
      0.00000000000000E+00   0.00000000000000E+00  -3.00583381726878E-16  -6.75022849200633E-29  -3.00583381726946E-16
      1.05755669062700E-15   2.37866666666667E+00   2.37866666666667E+00   0.00000000000000E+00   0.00000000000000E+00
      1.46337616211623E-15   2.30009565690183E-20   1.46339916307280E-15   2.97850481367873E-15   1.00000000000000E+00
      1.00000000000000E+00   0.00000000000000E+00   0.00000000000000E+00   0.00000000000000E+00   0.00000000000000E+00
      0.00000000000000E+00   2.80022411462831E-16
      8.17888888888889E-01
      0.00000000000000E+00   0.00000000000000E+00   0.00000000000000E+00   0.00000000000000E+00  -1.41228160899315E-19
     -1.17296226361150E-15  -1.17310349177240E-15  -4.35801096643923E-15   0.00000000000000E+00   0.00000000000000E+00
      0.00000000000000E+00   0.00000000000000E+00  -3.03847984797445E-16  -2.05034048278173E-28  -3.03847984797650E-16
      1.05755659078915E-15   2.45366666666667E+00   2.45366666666667E+00   0.00000000000000E+00   0.00000000000000E+00
      1.47692847330023E-15   2.30032698217105E-20   1.47695147657005E-15   3.03017336167800E-15   1.00000000000000E+00
      1.00000000000000E+00   0.00000000000000E+00   0.00000000000000E+00   0.00000000000000E+00   0.00000000000000E+00
      0.00000000000000E+00   2.70281013972090E-16
      8.42888888888889E-01
      0.00000000000000E+00   0.00000000000000E+00   0.00000000000000E+00   0.00000000000000E+00   1.82997701419235E-20
     -1.18224561365953E-15  -1.18222731388939E-15  -4.39915233857324E-15   0.00000000000000E+00   0.00000000000000E+00
      0.00000000000000E+00   0.00000000000000E+00  -3.07228629093165E-16  -1.79341773540455E-27  -3.07228629094958E-16
      1.05755648816912E-15   2.52866666666667E+00   2.52866666666667E+00   0.00000000000000E+00   0.00000000000000E+00
      1.48943293750551E-15   2.30054788303242E-20   1.48945594298434E-15   3.08106148896608E-15   1.00000000000000E+00
      1.00000000000000E+00   0.00000000000000E+00   0.00000000000000E+00   0.00000000000000E+00   0.00000000000000E+00
      0.00000000000000E+00   2.60534361438044E-16
      8.67888888888889E-01
      0.00000000000000E+00   0.00000000000000E+00   0.00000000000000E+00   0.00000000000000E+00   2.14809449695644E-19