DF-ISE text

Info {
  version   = 1.0
  type      = xyplot
  datasets  = [
    "time"
    "substrate OuterVoltage" "substrate InnerVoltage" "substrate QuasiFermiPotential" "substrate DisplacementCurrent" "substrate eCurrent"
    "substrate hCurrent" "substrate TotalCurrent" "substrate Charge" "source OuterVoltage" "source InnerVoltage"
    "source QuasiFermiPotential" "source DisplacementCurrent" "source eCurrent" "source hCurrent" "source TotalCurrent"
    "source Charge" "drain OuterVoltage" "drain InnerVoltage" "drain QuasiFermiPotential" "drain DisplacementCurrent"
    "drain eCurrent" "drain hCurrent" "drain TotalCurrent" "drain Charge" "gate OuterVoltage"
    "gate InnerVoltage" "gate QuasiFermiPotential" "gate DisplacementCurrent" "gate eCurrent" "gate hCurrent"
    "gate TotalCurrent" "gate Charge" ]
  functions = [
    Time
    OuterVoltage InnerVoltage QuasiFermiPotential DisplacementCurrent eCurrent
    hCurrent TotalCurrent Charge OuterVoltage InnerVoltage
    QuasiFermiPotential DisplacementCurrent eCurrent hCurrent TotalCurrent
    Charge OuterVoltage InnerVoltage QuasiFermiPotential DisplacementCurrent
    eCurrent hCurrent TotalCurrent Charge OuterVoltage
    InnerVoltage QuasiFermiPotential DisplacementCurrent eCurrent hCurrent
    TotalCurrent Charge ]
}

Data {
      0.00000000000000E+00
      0.00000000000000E+00   0.00000000000000E+00   0.00000000000000E+00   0.00000000000000E+00  -1.08512740467742E-19
     -1.40691651656813E-23  -1.08526809632908E-19  -5.98366871184405E-15   0.00000000000000E+00   0.00000000000000E+00
      0.00000000000000E+00   0.00000000000000E+00   1.59620633155502E-19   5.18342635462495E-24   1.59625816581856E-19
      2.75642034542312E-15   0.00000000000000E+00   0.00000000000000E+00   0.00000000000000E+00   0.00000000000000E+00
     -5.11078926869258E-20   8.88573797683870E-24  -5.10990069489490E-20   2.75642034542312E-15   0.00000000000000E+00
      0.00000000000000E+00   0.00000000000000E+00   0.00000000000000E+00   0.00000000000000E+00   0.00000000000000E+00
      0.00000000000000E+00   4.70828020997813E-16
      1.00000000000000E-02
      0.00000000000000E+00   0.00000000000000E+00   0.00000000000000E+00   0.00000000000000E+00   2.52055536542069E-17
     -6.92322564801084E-17  -4.40267028259016E-17  -6.04491178835095E-15   0.00000000000000E+00   0.00000000000000E+00
      0.00000000000000E+00   0.00000000000000E+00  -1.65537186861727E-19  -1.53051327427315E-23  -1.65552491994470E-19
      2.75642034542309E-15   3.00000000000000E-02   3.00000000000000E-02   0.00000000000000E+00   0.00000000000000E+00
      4.41703370507458E-17   2.19182671502471E-20   4.41922553178960E-17   2.81944404738625E-15   0.00000000000000E+00
      0.00000000000000E+00   0.00000000000000E+00   0.00000000000000E+00   0.00000000000000E+00   0.00000000000000E+00
      0.00000000000000E+00   4.69047395541610E-16
      2.33333333333333E-02
      0.00000000000000E+00   0.00000000000000E+00   0.00000000000000E+00   0.00000000000000E+00   3.84268525786336E-14
     -1.30387650293845E-16   3.82964649283398E-14  -6.12612017772024E-15   0.00000000000000E+00   0.00000000000000E+00
      0.00000000000000E+00   0.00000000000000E+00  -7.08587638486595E-20   9.34071075770001E-24  -7.08494231379018E-20
      2.75642034542307E-15   7.00000000000000E-02   7.00000000000000E-02   0.00000000000000E+00   0.00000000000000E+00
     -3.82949959369200E-14  -1.39814199661031E-18  -3.82963940789166E-14   2.90300889338479E-15   0.00000000000000E+00
      0.00000000000000E+00   0.00000000000000E+00   0.00000000000000E+00   0.00000000000000E+00   0.00000000000000E+00
      0.00000000000000E+00   4.66690938912390E-16
      4.28888888888889E-02
      0.00000000000000E+00   0.00000000000000E+00   0.00000000000000E+00   0.00000000000000E+00  -1.19330747344197E-21
     -2.14186192301176E-16  -2.14187385608650E-16  -6.24439419161790E-15   0.00000000000000E+00   0.00000000000000E+00
      0.00000000000000E+00   0.00000000000000E+00  -2.34164753739531E-19  -1.80052436182391E-23  -2.34182758983150E-19
      2.75642034542303E-15   1.28666666666667E-01   1.28666666666667E-01   0.00000000000000E+00   0.00000000000000E+00
      2.14352450633568E-16   6.91177340649506E-20   2.14421568367633E-16   3.02469519655075E-15   0.00000000000000E+00
      0.00000000000000E+00   0.00000000000000E+00   0.00000000000000E+00   0.00000000000000E+00   0.00000000000000E+00
      0.00000000000000E+00   4.63278649644141E-16
      6.78888888888889E-02
      0.00000000000000E+00   0.00000000000000E+00   0.00000000000000E+00   0.00000000000000E+00   7.95128997999109E-20
     -3.39947048021491E-16  -3.39867535121692E-16  -6.39418807742613E-15   0.00000000000000E+00   0.00000000000000E+00
      0.00000000000000E+00   0.00000000000000E+00  -2.21620810780137E-19  -3.88583866961559E-23  -2.21659669166833E-19
      2.75642034542299E-15   2.03666666666667E-01   2.03666666666667E-01   0.00000000000000E+00   0.00000000000000E+00
      3.40027861600665E-16   6.13331901927953E-20   3.40089194790858E-16   3.17875533402248E-15   0.00000000000000E+00
      0.00000000000000E+00   0.00000000000000E+00   0.00000000000000E+00   0.00000000000000E+00   0.00000000000000E+00
      0.00000000000000E+00   4.59012397980649E-16
      9.28888888888889E-02
      0.00000000000000E+00   0.00000000000000E+00   0.00000000000000E+00   0.00000000000000E+00   6.49503034970952E-18
     -4.93218305111699E-16  -4.86723274761990E-16  -6.54227467091653E-15   0.00000000000000E+00   0.00000000000000E+00
      0.00000000000000E+00   0.00000000000000E+00  -8.64605593053494E-20  -2.88806100119818E-23  -8.64894399153614E-20
      2.75642034542293E-15   2.78666666666667E-01   2.78666666666667E-01   0.00000000000000E+00   0.00000000000000E+00
      4.86856443520471E-16  -4.66793185661219E-20   4.86809764201905E-16   3.33097700177688E-15   0.00000000000000E+00
      0.00000000000000E+00   0.00000000000000E+00   0.00000000000000E+00   0.00000000000000E+00   0.00000000000000E+00
      0.00000000000000E+00   4.54877323716718E-16
      1.17888888888889E-01
      0.00000000000000E+00   0.00000000000000E+00   0.00000000000000E+00   0.00000000000000E+00  -1.51692299468832E-19
     -6.66729900789180E-16  -6.66881593088649E-16  -6.68843570957489E-15   0.00000000000000E+00   0.00000000000000E+00
      0.00000000000000E+00   0.00000000000000E+00  -9.97352243311158E-20  -4.89922658904377E-24  -9.97401235577048E-20
      2.75642034542287E-15   3.53666666666667E-01   3.53666666666667E-01   0.00000000000000E+00   0.00000000000000E+00
      6.66897882018968E-16   8.34511932386844E-20   6.66981333212207E-16   3.48114266952808E-15   0.00000000000000E+00
      0.00000000000000E+00   0.00000000000000E+00   0.00000000000000E+00   0.00000000000000E+00   0.00000000000000E+00
      0.00000000000000E+00   4.50872694623945E-16
      1.42888888888889E-01
      0.00000000000000E+00   0.00000000000000E+00   0.00000000000000E+00   0.00000000000000E+00  -2.38243172322595E-19
     -8.55773562454687E-16  -8.56011805627009E-16  -6.83241206771391E-15   0.00000000000000E+00   0.00000000000000E+00
      0.00000000000000E+00   0.00000000000000E+00   4.66222505598820E-20  -2.65441477077618E-23   4.65957064121743E-20
      2.75642034542279E-15   4.28666666666667E-01   4.28666666666667E-01   0.00000000000000E+00   0.00000000000000E+00
      8.55900894266605E-16   6.43156539910796E-20   8.55965209920596E-16   3.62903178286549E-15   0.00000000000000E+00
      0.00000000000000E+00   0.00000000000000E+00   0.00000000000000E+00   0.00000000000000E+00   0.00000000000000E+00
      0.00000000000000E+00   4.46959939425626E-16
      1.67888888888889E-01
      0.00000000000000E+00   0.00000000000000E+00   0.00000000000000E+00   0.00000000000000E+00  -8.65899972259141E-20
     -1.06654882204100E-15  -1.06663541203823E-15  -6.97384081412631E-15   0.00000000000000E+00   0.00000000000000E+00
      0.00000000000000E+00   0.00000000000000E+00  -1.15255691808229E-19  -1.37646065764423E-25  -1.15255829454294E-19
      2.75642034542271E-15   5.03666666666667E-01   5.03666666666667E-01   0.00000000000000E+00   0.00000000000000E+00
      1.06666726927027E-15   8.33985974124254E-20   1.06675066786768E-15   3.77433003012167E-15   0.00000000000000E+00
      0.00000000000000E+00   0.00000000000000E+00   0.00000000000000E+00   0.00000000000000E+00   0.00000000000000E+00
      0.00000000000000E+00   4.43090438581927E-16
      1.92888888888889E-01
      0.00000000000000E+00   0.00000000000000E+00   0.00000000000000E+00   0.00000000000000E+00  -1.98029940145776E-19
     -1.30986364333478E-15  -1.31006167327493E-15  -7.11219679799182E-15   0.00000000000000E+00   0.00000000000000E+00
      0.00000000000000E+00   0.00000000000000E+00  -1.95840867116140E-21   4.43313788869684E-24  -1.95397553327270E-21
      2.75642034542263E-15   5.78666666666667E-01   5.78666666666667E-01   0.00000000000000E+00   0.00000000000000E+00
      1.30999999857543E-15   6.36286750322816E-20   1.31006362725046E-15   3.91654404312544E-15   0.00000000000000E+00
      0.00000000000000E+00   0.00000000000000E+00   0.00000000000000E+00   0.00000000000000E+00   0.00000000000000E+00
      0.00000000000000E+00   4.39232409443753E-16
      2.17888888888889E-01
      0.00000000000000E+00   0.00000000000000E+00   0.00000000000000E+00   0.00000000000000E+00   3.59186959682096E-20
     -1.58275423552882E-15  -1.58271831683285E-15  -7.24683104155757E-15   0.00000000000000E+00   0.00000000000000E+00
      0.00000000000000E+00   0.00000000000000E+00  -2.45078592939364E-19  -1.50637903585344E-23  -2.45093656729722E-19
      2.75642034542253E-15   6.53666666666667E-01   6.53666666666667E-01   0.00000000000000E+00   0.00000000000000E+00
      1.58290380487707E-15   5.96056125141643E-20   1.58296341048958E-15   4.05503962291799E-15   0.00000000000000E+00
      0.00000000000000E+00   0.00000000000000E+00   0.00000000000000E+00   0.00000000000000E+00   0.00000000000000E+00
      0.00000000000000E+00   4.35371073217059E-16
      2.42888888888889E-01
      0.00000000000000E+00   0.00000000000000E+00   0.00000000000000E+00   0.00000000000000E+00  -3.82598108142451E-20
     -1.81707978700065E-15  -1.81711804681146E-15  -7.37711747156738E-15   0.00000000000000E+00   0.00000000000000E+00
      0.00000000000000E+00   0.00000000000000E+00  -1.71283844630066E-19  -1.21422982604659E-23  -1.71295986928326E-19
      2.75642034542244E-15   7.28666666666667E-01   7.28666666666667E-01   0.00000000000000E+00   0.00000000000000E+00
      1.81726909503806E-15   2.02477603334244E-20   1.81728934279839E-15   4.18919658373301E-15   0.00000000000000E+00
      0.00000000000000E+00   0.00000000000000E+00   0.00000000000000E+00   0.00000000000000E+00   0.00000000000000E+00
      0.00000000000000E+00   4.31500542411946E-16
      2.67888888888889E-01
      0.00000000000000E+00   0.00000000000000E+00   0.00000000000000E+00   0.00000000000000E+00  -1.16442499290951E-19
     -1.96414574367266E-15  -1.96426218617195E-15  -7.50270726069566E-15   0.00000000000000E+00   0.00000000000000E+00
      0.00000000000000E+00   0.00000000000000E+00  -9.02151212683566E-20  -8.34342414869673E-24  -9.02234646925053E-20
      2.75642034542238E-15   8.03666666666667E-01   8.03666666666667E-01   0.00000000000000E+00   0.00000000000000E+00
      1.96450758143568E-15  -1.55171799037611E-19   1.96435240963664E-15   4.31866830247109E-15   0.00000000000000E+00
      0.00000000000000E+00   0.00000000000000E+00   0.00000000000000E+00   0.00000000000000E+00   0.00000000000000E+00
      0.00000000000000E+00   4.27618612802179E-16
      2.92888888888889E-01
      0.00000000000000E+00   0.00000000000000E+00   0.00000000000000E+00   0.00000000000000E+00  -8.86095865574827E-20
     -2.05348358359417E-15  -2.05357219318073E-15  -7.62382019063823E-15   0.00000000000000E+00   0.00000000000000E+00
      0.00000000000000E+00   0.00000000000000E+00  -1.21236035658175E-19   3.35282305607096E-24  -1.21232682835119E-19
      2.75642034542235E-15   8.78666666666667E-01   8.78666666666667E-01   0.00000000000000E+00   0.00000000000000E+00
      2.05362029526453E-15   7.31305990313240E-20   2.05369342586356E-15   4.44367532759836E-15   0.00000000000000E+00
      0.00000000000000E+00   0.00000000000000E+00   0.00000000000000E+00   0.00000000000000E+00   0.00000000000000E+00
      0.00000000000000E+00   4.23724517617508E-16
      3.17888888888889E-01
      0.00000000000000E+00   0.00000000000000E+00   0.00000000000000E+00   0.00000000000000E+00  -2.49286567208292E-19
     -2.11383164656877E-15  -2.11408093313598E-15  -7.74130949474226E-15   0.00000000000000E+00   0.00000000000000E+00
      0.00000000000000E+00   0.00000000000000E+00   3.92045592554827E-20   1.45733748974281E-23   3.92191326303801E-20
      2.75642034542232E-15   9.53666666666667E-01   9.53666666666667E-01   0.00000000000000E+00   0.00000000000000E+00
      2.11399154616034E-15   5.01678430005775E-20   2.11404171400334E-15   4.56507105731377E-15   0.00000000000000E+00
      0.00000000000000E+00   0.00000000000000E+00   0.00000000000000E+00   0.00000000000000E+00   0.00000000000000E+00
      0.00000000000000E+00   4.19818092006167E-16
      3.42888888888889E-01
      0.00000000000000E+00   0.00000000000000E+00   0.00000000000000E+00   0.00000000000000E+00  -1.46569471169328E-19
     -2.15705787036275E-15  -2.15720443983391E-15  -7.85629105643423E-15   0.00000000000000E+00   0.00000000000000E+00
      0.00000000000000E+00   0.00000000000000E+00  -6.34848010647816E-20  -1.09702422527531E-23  -6.34957713070344E-20
      2.75642034542231E-15   1.02866666666667E+00   1.02866666666667E+00   0.00000000000000E+00   0.00000000000000E+00
      2.15720485711802E-15   6.30784871986070E-20   2.15726793560521E-15   4.68397123599189E-15   0.00000000000000E+00
      0.00000000000000E+00   0.00000000000000E+00   0.00000000000000E+00   0.00000000000000E+00   0.00000000000000E+00
      0.00000000000000E+00   4.15899475020039E-16
      3.67888888888889E-01
      0.00000000000000E+00   0.00000000000000E+00   0.00000000000000E+00   0.00000000000000E+00  -2.09155723400887E-19
     -2.18996999302178E-15  -2.19017914874518E-15  -7.96968000505987E-15   0.00000000000000E+00   0.00000000000000E+00
      0.00000000000000E+00   0.00000000000000E+00  -1.34067427463744E-21   1.45539710163514E-23  -1.32612030362109E-21
      2.75642034542229E-15   1.10366666666667E+00   1.10366666666667E+00   0.00000000000000E+00   0.00000000000000E+00
      2.18995521873031E-15   2.25256135171975E-19   2.19018047486548E-15   4.80129067187780E-15   0.00000000000000E+00
      0.00000000000000E+00   0.00000000000000E+00   0.00000000000000E+00   0.00000000000000E+00   0.00000000000000E+00
      0.00000000000000E+00   4.11968987759792E-16
      3.92888888888889E-01
      0.00000000000000E+00   0.00000000000000E+00   0.00000000000000E+00   0.00000000000000E+00  -1.10215539693082E-19
     -2.21602288479969E-15  -2.21613310033938E-15  -8.08205394194002E-15   0.00000000000000E+00   0.00000000000000E+00
      0.00000000000000E+00   0.00000000000000E+00  -1.00460629243711E-19   2.22836592119056E-24  -1.00458400877790E-19
      2.75642034542228E-15   1.17866666666667E+00   1.17866666666667E+00   0.00000000000000E+00   0.00000000000000E+00
      2.21616250274336E-15   7.10559968987126E-20   2.21623355874026E-15   4.91760653915356E-15   0.00000000000000E+00
      0.00000000000000E+00   0.00000000000000E+00   0.00000000000000E+00   0.00000000000000E+00   0.00000000000000E+00
      0.00000000000000E+00   4.08027057364184E-16
      4.17888888888889E-01
      0.00000000000000E+00   0.00000000000000E+00   0.00000000000000E+00   0.00000000000000E+00  -1.74869885811365E-19
     -2.23741716574711E-15  -2.23759203563292E-15  -8.19374702198504E-15   0.00000000000000E+00   0.00000000000000E+00
      0.00000000000000E+00   0.00000000000000E+00  -3.59828259272520E-20   6.13537477397601E-24  -3.59766905524780E-20
      2.75642034542227E-15   1.25366666666667E+00   1.25366666666667E+00   0.00000000000000E+00   0.00000000000000E+00
      2.23756545528967E-15   6.25570338020588E-20   2.23762801232347E-15   5.03325252754629E-15   0.00000000000000E+00
      0.00000000000000E+00   0.00000000000000E+00   0.00000000000000E+00   0.00000000000000E+00   0.00000000000000E+00
      0.00000000000000E+00   4.04074149016470E-16
      4.42888888888889E-01
      0.00000000000000E+00   0.00000000000000E+00   0.00000000000000E+00   0.00000000000000E+00  -3.76554874609855E-20
     -2.25395242029956E-15  -2.25399007578702E-15  -8.30494721384168E-15   0.00000000000000E+00   0.00000000000000E+00
      0.00000000000000E+00   0.00000000000000E+00  -1.73365308819932E-19   5.26969599576622E-24  -1.73360039123937E-19
      2.75642034542226E-15   1.32866666666667E+00   1.32866666666667E+00   0.00000000000000E+00   0.00000000000000E+00
      2.25410364538241E-15   5.97904437350623E-20   2.25416343582615E-15   5.14841616129074E-15   0.00000000000000E+00
      0.00000000000000E+00   0.00000000000000E+00   0.00000000000000E+00   0.00000000000000E+00   0.00000000000000E+00
      0.00000000000000E+00   4.00110707128669E-16
      4.67888888888889E-01
      0.00000000000000E+00   0.00000000000000E+00   0.00000000000000E+00   0.00000000000000E+00  -6.22342850074152E-20
     -2.26673141137530E-15  -2.26679364566031E-15  -8.41574936756023E-15   0.00000000000000E+00   0.00000000000000E+00
      0.00000000000000E+00   0.00000000000000E+00  -1.48942108812379E-19  -1.71593567592723E-23  -1.48959268169138E-19
      2.75642034542225E-15   1.40366666666667E+00   1.40366666666667E+00   0.00000000000000E+00   0.00000000000000E+00
      2.26688348517773E-15   5.91197507426716E-20   2.26694260492848E-15   5.26319190083760E-15   0.00000000000000E+00
      0.00000000000000E+00   0.00000000000000E+00   0.00000000000000E+00   0.00000000000000E+00   0.00000000000000E+00
      0.00000000000000E+00   3.96137121300388E-16
      4.92888888888889E-01
      0.00000000000000E+00   0.00000000000000E+00   0.00000000000000E+00   0.00000000000000E+00  -1.10623939655038E-19
     -2.27944006081025E-15  -2.27955068474990E-15  -8.52618934151301E-15   0.00000000000000E+00   0.00000000000000E+00
      0.00000000000000E+00   0.00000000000000E+00  -1.00712877805550E-19  -9.04728006321672E-24  -1.00721925085613E-19
      2.75642034542224E-15   1.47866666666667E+00   1.47866666666667E+00   0.00000000000000E+00   0.00000000000000E+00
      2.27959254327103E-15   5.88634039614919E-20   2.27965140667499E-15   5.37761527461773E-15   0.00000000000000E+00
      0.00000000000000E+00   0.00000000000000E+00   0.00000000000000E+00   0.00000000000000E+00   0.00000000000000E+00
      0.00000000000000E+00   3.92153721473024E-16
      5.17888888888889E-01
      0.00000000000000E+00   0.00000000000000E+00   0.00000000000000E+00   0.00000000000000E+00  -1.31361472050204E-19
     -2.29722354019975E-15  -2.29735490167180E-15  -8.63626787432260E-15   0.00000000000000E+00   0.00000000000000E+00
      0.00000000000000E+00   0.00000000000000E+00  -8.01234045560908E-20   9.52811774651213E-24  -8.01138764383443E-20
      2.75642034542221E-15   1.55366666666667E+00   1.55366666666667E+00   0.00000000000000E+00   0.00000000000000E+00
      2.29737536384027E-15   5.96517079655252E-20   2.29743501554824E-15   5.49168674122686E-15   0.00000000000000E+00
      0.00000000000000E+00   0.00000000000000E+00   0.00000000000000E+00   0.00000000000000E+00   0.00000000000000E+00
      0.00000000000000E+00   3.88160787673522E-16
      5.42888888888889E-01
      0.00000000000000E+00   0.00000000000000E+00   0.00000000000000E+00   0.00000000000000E+00  -8.79513435967448E-20
     -2.32711822040533E-15  -2.32720617174893E-15  -8.74596437096198E-15   0.00000000000000E+00   0.00000000000000E+00
      0.00000000000000E+00   0.00000000000000E+00  -1.23605740120760E-19   3.31008493884043E-24  -1.23602430035821E-19
      2.75642034542219E-15   1.62866666666667E+00   1.62866666666667E+00   0.00000000000000E+00   0.00000000000000E+00
      2.32726997940713E-15   5.97947718357902E-20   2.32732977417896E-15   5.60538546953759E-15   0.00000000000000E+00
      0.00000000000000E+00   0.00000000000000E+00   0.00000000000000E+00   0.00000000000000E+00   0.00000000000000E+00
      0.00000000000000E+00   3.84158556002198E-16
      5.67888888888889E-01
      0.00000000000000E+00   0.00000000000000E+00   0.00000000000000E+00   0.00000000000000E+00  -1.47287418698521E-19
     -2.37976140324242E-15  -2.37990869066112E-15  -8.85524300735484E-15   0.00000000000000E+00   0.00000000000000E+00
      0.00000000000000E+00   0.00000000000000E+00  -6.40672416498236E-20   4.30071094387713E-24  -6.40629409388797E-20
      2.75642034542215E-15   1.70366666666667E+00   1.70366666666667E+00   0.00000000000000E+00   0.00000000000000E+00
      2.37991300687142E-15   5.97467306436868E-20   2.37997275360206E-15   5.71867544710829E-15   0.00000000000000E+00
      0.00000000000000E+00   0.00000000000000E+00   0.00000000000000E+00   0.00000000000000E+00   0.00000000000000E+00
      0.00000000000000E+00   3.80147214824406E-16
      5.92888888888889E-01
      0.00000000000000E+00   0.00000000000000E+00   0.00000000000000E+00   0.00000000000000E+00  -1.67736761084108E-19
     -2.46825138850163E-15  -2.46841912526271E-15  -8.96405470179832E-15   0.00000000000000E+00   0.00000000000000E+00
      0.00000000000000E+00   0.00000000000000E+00  -4.36381226121614E-20  -1.25926998634805E-23  -4.36507153120249E-20
      2.75642034542195E-15   1.77866666666667E+00   1.77866666666667E+00   0.00000000000000E+00   0.00000000000000E+00
      2.46840303204058E-15   5.97439374409998E-20   2.46846277597802E-15   5.83150745664837E-15   0.00000000000000E+00
      0.00000000000000E+00   0.00000000000000E+00   0.00000000000000E+00   0.00000000000000E+00   0.00000000000000E+00
      0.00000000000000E+00   3.76126899728007E-16
      6.17888888888889E-01
      0.00000000000000E+00   0.00000000000000E+00   0.00000000000000E+00   0.00000000000000E+00  -1.20152521254018E-20
     -2.60039102851087E-15  -2.60040304376300E-15  -9.07233742012931E-15   0.00000000000000E+00   0.00000000000000E+00
      0.00000000000000E+00   0.00000000000000E+00  -1.99837847032773E-19  -2.65312238236444E-24  -1.99840500155155E-19
      2.75642034542178E-15   1.85366666666667E+00   1.85366666666667E+00   0.00000000000000E+00   0.00000000000000E+00
      2.60054315489689E-15   5.97293662657273E-20   2.60060288426316E-15   5.94381937565546E-15   0.00000000000000E+00
      0.00000000000000E+00   0.00000000000000E+00   0.00000000000000E+00   0.00000000000000E+00   0.00000000000000E+00
      0.00000000000000E+00   3.72097699052080E-16
      6.42888888888889E-01
      0.00000000000000E+00   0.00000000000000E+00   0.00000000000000E+00   0.00000000000000E+00  -8.14882154074493E-20
     -2.76927571534746E-15  -2.76935720356287E-15  -9.18001509556637E-15   0.00000000000000E+00   0.00000000000000E+00
      0.00000000000000E+00   0.00000000000000E+00  -1.30786423346872E-19  -7.68315219102432E-24  -1.30794106499063E-19
      2.75642034542207E-15   1.92866666666667E+00   1.92866666666667E+00   0.00000000000000E+00   0.00000000000000E+00
      2.76942822146736E-15   5.97762020077113E-20   2.76948799766937E-15   6.05553507777670E-15   0.00000000000000E+00
      0.00000000000000E+00   0.00000000000000E+00   0.00000000000000E+00   0.00000000000000E+00   0.00000000000000E+00
      0.00000000000000E+00   3.68059672367622E-16
      6.67888888888889E-01
      0.00000000000000E+00   0.00000000000000E+00   0.00000000000000E+00   0.00000000000000E+00  -2.42987899836885E-19
     -2.94410801557901E-15  -2.94435100347885E-15  -9.28699341871986E-15   0.00000000000000E+00   0.00000000000000E+00
      0.00000000000000E+00   0.00000000000000E+00   3.34935027894587E-20  -2.81479108961025E-23   3.34653548785626E-20
      2.75642034542180E-15   2.00366666666667E+00   2.00366666666667E+00   0.00000000000000E+00   0.00000000000000E+00
      2.94425780251524E-15   5.97356087364720E-20   2.94431753812397E-15   6.16656020100614E-15   0.00000000000000E+00
      0.00000000000000E+00   0.00000000000000E+00   0.00000000000000E+00   0.00000000000000E+00   0.00000000000000E+00
      0.00000000000000E+00   3.64012872291915E-16
      6.92888888888889E-01
      0.00000000000000E+00   0.00000000000000E+00   0.00000000000000E+00   0.00000000000000E+00  -1.10231021065171E-19
     -3.08293524833023E-15  -3.08304547935129E-15  -9.39315072057878E-15   0.00000000000000E+00   0.00000000000000E+00
      0.00000000000000E+00   0.00000000000000E+00  -9.96423314421863E-20   1.51763589972022E-23  -9.96271550831891E-20
      2.75642034542186E-15   2.07866666666667E+00   2.07866666666667E+00   0.00000000000000E+00   0.00000000000000E+00
      3.08308532762575E-15   5.97788806220838E-20   3.08314510650637E-15   6.27677301789206E-15   0.00000000000000E+00
      0.00000000000000E+00   0.00000000000000E+00   0.00000000000000E+00   0.00000000000000E+00   0.00000000000000E+00
      0.00000000000000E+00   3.59957357264886E-16
      7.17888888888889E-01
      0.00000000000000E+00   0.00000000000000E+00   0.00000000000000E+00   0.00000000000000E+00  -1.32656522611965E-19
     -3.17104523423896E-15  -3.17117789076157E-15  -9.49832475403925E-15   0.00000000000000E+00   0.00000000000000E+00
      0.00000000000000E+00   0.00000000000000E+00  -7.94828531879901E-20   4.28355390520613E-23  -7.94400176489380E-20
      2.75642034542189E-15   2.15366666666667E+00   2.15366666666667E+00   0.00000000000000E+00   0.00000000000000E+00
      3.17119752971288E-15   5.98010663429894E-20   3.17125733077922E-15   6.38601121666798E-15   0.00000000000000E+00
      0.00000000000000E+00   0.00000000000000E+00   0.00000000000000E+00   0.00000000000000E+00   0.00000000000000E+00
      0.00000000000000E+00   3.55893191949389E-16
      7.42888888888889E-01
      0.00000000000000E+00   0.00000000000000E+00   0.00000000000000E+00   0.00000000000000E+00  -1.96863044640695E-19
     -3.22404595570590E-15  -3.22424281875054E-15  -9.60229938858868E-15   0.00000000000000E+00   0.00000000000000E+00
      0.00000000000000E+00   0.00000000000000E+00  -1.60993580018500E-20   2.16279178713864E-24  -1.60971952100629E-20
      2.75642034542190E-15   2.22866666666667E+00   2.22866666666667E+00   0.00000000000000E+00   0.00000000000000E+00
      3.22419910633368E-15   5.98096120635208E-20   3.22425891594575E-15   6.49405860195002E-15   0.00000000000000E+00
      0.00000000000000E+00   0.00000000000000E+00   0.00000000000000E+00   0.00000000000000E+00   0.00000000000000E+00
      0.00000000000000E+00   3.51820441216758E-16
      7.67888888888889E-01
      0.00000000000000E+00   0.00000000000000E+00   0.00000000000000E+00   0.00000000000000E+00  -8.33559495971959E-20
     -3.25976305221223E-15  -3.25984640816183E-15  -9.70479827776535E-15   0.00000000000000E+00   0.00000000000000E+00
      0.00000000000000E+00   0.00000000000000E+00  -1.29781947102574E-19   4.22909344057315E-24  -1.29777718009134E-19
      2.75642034542189E-15   2.30366666666667E+00   2.30366666666667E+00   0.00000000000000E+00   0.00000000000000E+00
      3.25991636849930E-15   5.98173805433535E-20   3.25997618587984E-15   6.60063876914695E-15   0.00000000000000E+00
      0.00000000000000E+00   0.00000000000000E+00   0.00000000000000E+00   0.00000000000000E+00   0.00000000000000E+00
      0.00000000000000E+00   3.47739163196534E-16
      7.92888888888889E-01
      0.00000000000000E+00   0.00000000000000E+00   0.00000000000000E+00   0.00000000000000E+00  -1.19101546753139E-19
     -3.28619205357328E-15  -3.28631115512004E-15  -9.80549762360444E-15   0.00000000000000E+00   0.00000000000000E+00
      0.00000000000000E+00   0.00000000000000E+00  -9.42122361229403E-20  -5.82462598763198E-24  -9.42180607489280E-20
      2.75642034542188E-15   2.37866666666667E+00   2.37866666666667E+00   0.00000000000000E+00   0.00000000000000E+00
      3.28634554828476E-15   5.98248960193915E-20   3.28640537318078E-15   6.70542787596210E-15   0.00000000000000E+00
      0.00000000000000E+00   0.00000000000000E+00   0.00000000000000E+00   0.00000000000000E+00   0.00000000000000E+00
      0.00000000000000E+00   3.43649402220465E-16
      8.17888888888889E-01
      0.00000000000000E+00   0.00000000000000E+00   0.00000000000000E+00   0.00000000000000E+00   1.22042439779144E-20
     -3.30603636063797E-15  -3.30602415639399E-15  -9.90407470090033E-15   0.00000000000000E+00   0.00000000000000E+00
      0.00000000000000E+00   0.00000000000000E+00  -2.25693570693257E-19  -6.92125955605853E-24  -2.25700491952813E-19
      2.75642034542187E-15   2.45366666666667E+00   2.45366666666667E+00   0.00000000000000E+00   0.00000000000000E+00
      3.30619002474578E-15   5.98321401663792E-20   3.30624985688594E-15   6.80810317434231E-15   0.00000000000000E+00
      0.00000000000000E+00   0.00000000000000E+00   0.00000000000000E+00   0.00000000000000E+00   0.00000000000000E+00
      0.00000000000000E+00   3.39551181136160E-16
      8.42888888888889E-01
      0.00000000000000E+00   0.00000000000000E+00   0.00000000000000E+00   0.00000000000000E+00  -2.09187035806866E-19
     -3.32021340469435E-15  -3.32042259173016E-15  -1.00003002380535E-14   0.00000000000000E+00   0.00000000000000E+00
      0.00000000000000E+00   0.00000000000000E+00  -4.47649694492229E-21   1.09276364325705E-23  -4.46556930848972E-21
      2.75642034542186E-15   2.52866666666667E+00   2.52866666666667E+00   0.00000000000000E+00   0.00000000000000E+00
      3.32036721820244E-15   5.98390970237525E-20   3.32042705729947E-15   6.90843539906490E-15   0.00000000000000E+00
      0.00000000000000E+00   0.00000000000000E+00   0.00000000000000E+00   0.00000000000000E+00   0.00000000000000E+00
      0.00000000000000E+00   3.35444493566732E-16
      8.67888888888889E-01
      0.00000000000000E+00   0.00000000000000E+00   0.00000000000000E+00   0.00000000000000E+00  -6.41004074756162E-20