DF-ISE text

Info {
  version   = 1.0
  type      = xyplot
  datasets  = [
    "time"
    "substrate OuterVoltage" "substrate InnerVoltage" "substrate QuasiFermiPotential" "substrate DisplacementCurrent" "substrate eCurrent"
    "substrate hCurrent" "substrate TotalCurrent" "substrate Charge" "source OuterVoltage" "source InnerVoltage"
    "source QuasiFermiPotential" "source DisplacementCurrent" "source eCurrent" "source hCurrent" "source TotalCurrent"
    "source Charge" "drain OuterVoltage" "drain InnerVoltage" "drain QuasiFermiPotential" "drain DisplacementCurrent"
    "drain eCurrent" "drain hCurrent" "drain TotalCurrent" "drain Charge" "gate OuterVoltage"
    "gate InnerVoltage" "gate QuasiFermiPotential" "gate DisplacementCurrent" "gate eCurrent" "gate hCurrent"
    "gate TotalCurrent" "gate Charge" ]
  functions = [
    Time
    OuterVoltage InnerVoltage QuasiFermiPotential DisplacementCurrent eCurrent
    hCurrent TotalCurrent Charge OuterVoltage InnerVoltage
    QuasiFermiPotential DisplacementCurrent eCurrent hCurrent TotalCurrent
    Charge OuterVoltage InnerVoltage QuasiFermiPotential DisplacementCurrent
    eCurrent hCurrent TotalCurrent Charge OuterVoltage
    InnerVoltage QuasiFermiPotential DisplacementCurrent eCurrent hCurrent
    TotalCurrent Charge ]
}

Data {
      0.00000000000000E+00
      0.00000000000000E+00   0.00000000000000E+00   0.00000000000000E+00   0.00000000000000E+00   2.96745987839611E-21
      1.30784283225407E-27   2.96746118623894E-21  -2.98800038159269E-15   0.00000000000000E+00   0.00000000000000E+00
      0.00000000000000E+00   0.00000000000000E+00   1.02827065908150E-20   5.86665438733825E-28   1.02827071774805E-20
      1.15145018263249E-15   0.00000000000000E+00   0.00000000000000E+00   0.00000000000000E+00   0.00000000000000E+00
     -1.32501664691365E-20  -1.89458289417235E-27  -1.32501683637194E-20   1.15145018263249E-15   1.00000000000000E+00
      1.00000000000000E+00   0.00000000000000E+00   0.00000000000000E+00   0.00000000000000E+00   0.00000000000000E+00
      0.00000000000000E+00   6.85100016327710E-16
      1.00000000000000E-02
      0.00000000000000E+00   0.00000000000000E+00   0.00000000000000E+00   0.00000000000000E+00   1.72150112290923E-16
     -2.45524105199975E-17   1.47597701770926E-16  -3.01559642269682E-15   0.00000000000000E+00   0.00000000000000E+00
      0.00000000000000E+00   0.00000000000000E+00  -1.16119640223386E-16   2.53468171253601E-27  -1.16119640220851E-16
      1.15145018200401E-15   3.00000000000000E-02   3.00000000000000E-02   0.00000000000000E+00   0.00000000000000E+00
     -3.14949320933953E-17   1.68705433203550E-20  -3.14780615500749E-17   1.18249051971257E-15   1.00000000000000E+00
      1.00000000000000E+00   0.00000000000000E+00   0.00000000000000E+00   0.00000000000000E+00   0.00000000000000E+00
      0.00000000000000E+00   6.81655720980229E-16
      2.33333333333333E-02
      0.00000000000000E+00   0.00000000000000E+00   0.00000000000000E+00   0.00000000000000E+00  -4.43807623840350E-20
     -4.78290339937316E-17  -4.78734147561157E-17  -3.05227073273383E-15   0.00000000000000E+00   0.00000000000000E+00
      0.00000000000000E+00   0.00000000000000E+00  -1.49235561481034E-16  -1.18533372550675E-27  -1.49235561482219E-16
      1.15145018115978E-15   7.00000000000000E-02   7.00000000000000E-02   0.00000000000000E+00   0.00000000000000E+00
      1.97086150856414E-16   2.28253819202346E-20   1.97108976238335E-16   1.22371676027974E-15   1.00000000000000E+00
      1.00000000000000E+00   0.00000000000000E+00   0.00000000000000E+00   0.00000000000000E+00   0.00000000000000E+00
      0.00000000000000E+00   6.77103791294308E-16
      4.24444444444445E-02
      0.00000000000000E+00   0.00000000000000E+00   0.00000000000000E+00   0.00000000000000E+00  -8.57295100427868E-19
     -7.83146040305383E-17  -7.91718991309661E-17  -3.10458732265554E-15   0.00000000000000E+00   0.00000000000000E+00
      0.00000000000000E+00   0.00000000000000E+00  -1.53218141186855E-16  -5.24407044029816E-28  -1.53218141187379E-16
      1.15145017993330E-15   1.27333333333333E-01   1.27333333333333E-01   0.00000000000000E+00   0.00000000000000E+00
      2.32357493381274E-16   3.25469370710977E-20   2.32390040318345E-16   1.28249277582263E-15   1.00000000000000E+00
      1.00000000000000E+00   0.00000000000000E+00   0.00000000000000E+00   0.00000000000000E+00   0.00000000000000E+00
      0.00000000000000E+00   6.70644366899606E-16
      6.74444444444444E-02
      0.00000000000000E+00   0.00000000000000E+00   0.00000000000000E+00   0.00000000000000E+00  -3.38986488842078E-20
     -1.26016535342247E-16  -1.26050433991131E-16  -3.17250901523823E-15   0.00000000000000E+00   0.00000000000000E+00
      0.00000000000000E+00   0.00000000000000E+00  -1.54458891491463E-16  -2.80429184783533E-28  -1.54458891491744E-16
      1.15145017828986E-15   2.02333333333333E-01   2.02333333333333E-01   0.00000000000000E+00   0.00000000000000E+00
      2.80481656594849E-16   2.76688880261587E-20   2.80509325482875E-16   1.35878693634146E-15   1.00000000000000E+00
      1.00000000000000E+00   0.00000000000000E+00   0.00000000000000E+00   0.00000000000000E+00   0.00000000000000E+00
      0.00000000000000E+00   6.62271900606909E-16
      9.24444444444444E-02
      0.00000000000000E+00   0.00000000000000E+00   0.00000000000000E+00   0.00000000000000E+00   1.14235251454509E-19
     -1.86364660003446E-16  -1.86250424751991E-16  -3.23974805729710E-15   0.00000000000000E+00   0.00000000000000E+00
      0.00000000000000E+00   0.00000000000000E+00  -1.56152384502963E-16   2.35804063750682E-29  -1.56152384502940E-16
      1.15145017659046E-15   2.77333333333333E-01   2.77333333333333E-01   0.00000000000000E+00   0.00000000000000E+00
      3.46352082335734E-16  -3.94927308080186E-18   3.42402809254932E-16   1.43435389984781E-15   1.00000000000000E+00
      1.00000000000000E+00   0.00000000000000E+00   0.00000000000000E+00   0.00000000000000E+00   0.00000000000000E+00
      0.00000000000000E+00   6.53943980858830E-16
      1.17444444444444E-01
      0.00000000000000E+00   0.00000000000000E+00   0.00000000000000E+00   0.00000000000000E+00   5.56324565937291E-20
     -2.75154460918666E-16  -2.75098828462072E-16  -3.30622629411187E-15   0.00000000000000E+00   0.00000000000000E+00
      0.00000000000000E+00   0.00000000000000E+00  -1.57425897737140E-16  -2.22741929284536E-27  -1.57425897739367E-16
      1.15145017482617E-15   3.52333333333333E-01   3.52333333333333E-01   0.00000000000000E+00   0.00000000000000E+00
      4.32379234405541E-16   1.45491795898041E-19   4.32524726201439E-16   1.50914535839434E-15   1.00000000000000E+00
      1.00000000000000E+00   0.00000000000000E+00   0.00000000000000E+00   0.00000000000000E+00   0.00000000000000E+00
      0.00000000000000E+00   6.45630760891377E-16
      1.42444444444444E-01
      0.00000000000000E+00   0.00000000000000E+00   0.00000000000000E+00   0.00000000000000E+00  -4.05524555734304E-20
     -3.71079168707728E-16  -3.71119721163301E-16  -3.37186087799306E-15   0.00000000000000E+00   0.00000000000000E+00
      0.00000000000000E+00   0.00000000000000E+00  -1.58643803206335E-16   2.68477913009758E-29  -1.58643803206309E-16
      1.15145017299161E-15   4.27333333333333E-01   4.27333333333333E-01   0.00000000000000E+00   0.00000000000000E+00
      5.29737830454455E-16   2.56939151536467E-20   5.29763524369609E-16   1.58309347093952E-15   1.00000000000000E+00
      1.00000000000000E+00   0.00000000000000E+00   0.00000000000000E+00   0.00000000000000E+00   0.00000000000000E+00
      0.00000000000000E+00   6.37317234061925E-16
      1.67444444444444E-01
      0.00000000000000E+00   0.00000000000000E+00   0.00000000000000E+00   0.00000000000000E+00  -1.30792727680645E-19
     -4.71429073636372E-16  -4.71559866364053E-16  -3.43651688747765E-15   0.00000000000000E+00   0.00000000000000E+00
      0.00000000000000E+00   0.00000000000000E+00  -1.59874346154853E-16  -9.01660266884613E-28  -1.59874346155755E-16
      1.15145017108345E-15   5.02333333333333E-01   5.02333333333333E-01   0.00000000000000E+00   0.00000000000000E+00
      6.31366127354960E-16   6.80851648482605E-20   6.31434212519808E-16   1.65606972343228E-15   1.00000000000000E+00
      1.00000000000000E+00   0.00000000000000E+00   0.00000000000000E+00   0.00000000000000E+00   0.00000000000000E+00
      0.00000000000000E+00   6.28996992961913E-16
      1.92444444444444E-01
      0.00000000000000E+00   0.00000000000000E+00   0.00000000000000E+00   0.00000000000000E+00  -1.96860653969124E-19
     -5.82955130820632E-16  -5.83151991474601E-16  -3.49998116262724E-15   0.00000000000000E+00   0.00000000000000E+00
      0.00000000000000E+00   0.00000000000000E+00  -1.61106024124152E-16   7.80327293136814E-28  -1.61106024123372E-16
      1.15145016909923E-15   5.77333333333333E-01   5.77333333333333E-01   0.00000000000000E+00   0.00000000000000E+00
      7.44218955025456E-16   3.90605725178355E-20   7.44258015597973E-16   1.72786320272588E-15   1.00000000000000E+00
      1.00000000000000E+00   0.00000000000000E+00   0.00000000000000E+00   0.00000000000000E+00   0.00000000000000E+00
      0.00000000000000E+00   6.20667790802136E-16
      2.17444444444444E-01
      0.00000000000000E+00   0.00000000000000E+00   0.00000000000000E+00   0.00000000000000E+00   3.09656136661364E-19
     -6.97544338602203E-16  -6.97234682465542E-16  -3.56196135413144E-15   0.00000000000000E+00   0.00000000000000E+00
      0.00000000000000E+00   0.00000000000000E+00  -1.62896498265228E-16  -1.20559935653929E-27  -1.62896498266434E-16
      1.15145016703688E-15   6.52333333333333E-01   6.52333333333333E-01   0.00000000000000E+00   0.00000000000000E+00
      8.60105474832147E-16   2.57058998266408E-20   8.60131180731974E-16   1.79818195266993E-15   1.00000000000000E+00
      1.00000000000000E+00   0.00000000000000E+00   0.00000000000000E+00   0.00000000000000E+00   0.00000000000000E+00
      0.00000000000000E+00   6.12329234424625E-16
      2.42444444444444E-01
      0.00000000000000E+00   0.00000000000000E+00   0.00000000000000E+00   0.00000000000000E+00  -2.94610208148743E-19
     -7.77528522412609E-16  -7.77823132620758E-16  -3.62213372154513E-15   0.00000000000000E+00   0.00000000000000E+00
      0.00000000000000E+00   0.00000000000000E+00  -1.63564359444994E-16   2.80311177112430E-28  -1.63564359444713E-16
      1.15145016489458E-15   7.27333333333333E-01   7.27333333333333E-01   0.00000000000000E+00   0.00000000000000E+00
      9.41470719170933E-16  -8.32271054619017E-20   9.41387492065471E-16   1.86670181316336E-15   1.00000000000000E+00
      1.00000000000000E+00   0.00000000000000E+00   0.00000000000000E+00   0.00000000000000E+00   0.00000000000000E+00
      0.00000000000000E+00   6.03981743487187E-16
      2.67444444444444E-01
      0.00000000000000E+00   0.00000000000000E+00   0.00000000000000E+00   0.00000000000000E+00  -1.29214047950124E-19
     -8.18548127275815E-16  -8.18677341323765E-16  -3.68028354155083E-15   0.00000000000000E+00   0.00000000000000E+00
      0.00000000000000E+00   0.00000000000000E+00  -1.64990652410662E-16  -4.84618765882627E-28  -1.64990652411147E-16
      1.15145016267068E-15   8.02333333333333E-01   8.02333333333333E-01   0.00000000000000E+00   0.00000000000000E+00
      9.84029114251186E-16  -3.61120516274583E-19   9.83667993734912E-16   1.93320728141820E-15   1.00000000000000E+00
      1.00000000000000E+00   0.00000000000000E+00   0.00000000000000E+00   0.00000000000000E+00   0.00000000000000E+00
      0.00000000000000E+00   5.95626097461943E-16
      2.92444444444444E-01
      0.00000000000000E+00   0.00000000000000E+00   0.00000000000000E+00   0.00000000000000E+00   1.67998217613082E-19
     -8.38261396753859E-16  -8.38093398536246E-16  -3.73649187146634E-15   0.00000000000000E+00   0.00000000000000E+00
      0.00000000000000E+00   0.00000000000000E+00  -1.66538844565554E-16  -1.44719956166543E-27  -1.66538844567001E-16
      1.15145016036376E-15   8.77333333333333E-01   8.77333333333333E-01   0.00000000000000E+00   0.00000000000000E+00
      1.00460652462163E-15   2.57184816115587E-20   1.00463224310325E-15   1.99777850142723E-15   1.00000000000000E+00
      1.00000000000000E+00   0.00000000000000E+00   0.00000000000000E+00   0.00000000000000E+00   0.00000000000000E+00
      0.00000000000000E+00   5.87263209675357E-16
      3.17444444444444E-01
      0.00000000000000E+00   0.00000000000000E+00   0.00000000000000E+00   0.00000000000000E+00   7.05443935748179E-21
     -8.48664875165018E-16  -8.48657820725660E-16  -3.79115172185337E-15   0.00000000000000E+00   0.00000000000000E+00
      0.00000000000000E+00   0.00000000000000E+00  -1.67619105837896E-16   3.62127350464990E-28  -1.67619105837534E-16
      1.15145015797253E-15   9.52333333333333E-01   9.52333333333333E-01   0.00000000000000E+00   0.00000000000000E+00
      1.01625115673939E-15   2.57698238013407E-20   1.01627692656319E-15   2.06080758420515E-15   1.00000000000000E+00
      1.00000000000000E+00   0.00000000000000E+00   0.00000000000000E+00   0.00000000000000E+00   0.00000000000000E+00
      0.00000000000000E+00   5.78893979675683E-16
      3.42444444444444E-01
      0.00000000000000E+00   0.00000000000000E+00   0.00000000000000E+00   0.00000000000000E+00  -7.43486718712250E-20
     -8.56064492454620E-16  -8.56138841126492E-16  -3.84474653370568E-15   0.00000000000000E+00   0.00000000000000E+00
      0.00000000000000E+00   0.00000000000000E+00  -1.68769139422008E-16  -4.02093619644529E-28  -1.68769139422410E-16
      1.15145015549574E-15   1.02733333333333E+00   1.02733333333333E+00   0.00000000000000E+00   0.00000000000000E+00
      1.02488213560104E-15   2.58449478579228E-20   1.02490798054890E-15   2.12277719291712E-15   1.00000000000000E+00
      1.00000000000000E+00   0.00000000000000E+00   0.00000000000000E+00   0.00000000000000E+00   0.00000000000000E+00
      0.00000000000000E+00   5.70519185292818E-16
      3.67444444444445E-01
      0.00000000000000E+00   0.00000000000000E+00   0.00000000000000E+00   0.00000000000000E+00  -1.44683486371692E-19
     -8.63227838288980E-16  -8.63372521775351E-16  -3.89764717691598E-15   0.00000000000000E+00   0.00000000000000E+00
      0.00000000000000E+00   0.00000000000000E+00  -1.69921198997849E-16   4.46575832851720E-28  -1.69921198997402E-16
      1.15145015293208E-15   1.10233333333333E+00   1.10233333333333E+00   0.00000000000000E+00   0.00000000000000E+00
      1.03326798914882E-15   2.57316239296042E-20   1.03329372077275E-15   2.18405760831492E-15   1.00000000000000E+00
      1.00000000000000E+00   0.00000000000000E+00   0.00000000000000E+00   0.00000000000000E+00   0.00000000000000E+00
      0.00000000000000E+00   5.62139415668974E-16
      3.92444444444445E-01
      0.00000000000000E+00   0.00000000000000E+00   0.00000000000000E+00   0.00000000000000E+00  -2.45303367699111E-19
     -8.72594494006912E-16  -8.72839797374611E-16  -3.95007024693073E-15   0.00000000000000E+00   0.00000000000000E+00
      0.00000000000000E+00   0.00000000000000E+00  -1.71034307606625E-16   1.09432000023216E-28  -1.71034307606516E-16
      1.15145015028010E-15   1.17733333333333E+00   1.17733333333333E+00   0.00000000000000E+00   0.00000000000000E+00
      1.04384837038393E-15   2.57345971932063E-20   1.04387410498113E-15   2.24486504517895E-15   1.00000000000000E+00
      1.00000000000000E+00   0.00000000000000E+00   0.00000000000000E+00   0.00000000000000E+00   0.00000000000000E+00
      0.00000000000000E+00   5.53755051471678E-16
      4.17444444444445E-01
      0.00000000000000E+00   0.00000000000000E+00   0.00000000000000E+00   0.00000000000000E+00   1.37682894787054E-18
     -8.86922241642956E-16  -8.85545412695085E-16  -4.00212092078648E-15   0.00000000000000E+00   0.00000000000000E+00
      0.00000000000000E+00   0.00000000000000E+00  -1.72395610628855E-16   9.43820851369099E-28  -1.72395610627911E-16
      1.15145014753823E-15   1.25233333333333E+00   1.25233333333333E+00   0.00000000000000E+00   0.00000000000000E+00
      1.05791537025096E-15   2.56530720309808E-20   1.05794102332300E-15   2.30530448333016E-15   1.00000000000000E+00
      1.00000000000000E+00   0.00000000000000E+00   0.00000000000000E+00   0.00000000000000E+00   0.00000000000000E+00
      0.00000000000000E+00   5.45366289918087E-16
      4.42444444444445E-01
      0.00000000000000E+00   0.00000000000000E+00   0.00000000000000E+00   0.00000000000000E+00   2.75282575502382E-19
     -9.07220110677423E-16  -9.06944828101921E-16  -4.05384148835009E-15   0.00000000000000E+00   0.00000000000000E+00
      0.00000000000000E+00   0.00000000000000E+00  -1.73410394633870E-16  -9.46569447590736E-28  -1.73410394634816E-16
      1.15145014470475E-15   1.32733333333333E+00   1.32733333333333E+00   0.00000000000000E+00   0.00000000000000E+00
      1.08033197795196E-15   2.32447847765209E-20   1.08035522273674E-15   2.36541814258990E-15   1.00000000000000E+00
      1.00000000000000E+00   0.00000000000000E+00   0.00000000000000E+00   0.00000000000000E+00   0.00000000000000E+00
      0.00000000000000E+00   5.36973201055435E-16
      4.67444444444445E-01
      0.00000000000000E+00   0.00000000000000E+00   0.00000000000000E+00   0.00000000000000E+00  -1.37015680266482E-20
     -9.30547467603143E-16  -9.30561169171170E-16  -4.10524411283309E-15   0.00000000000000E+00   0.00000000000000E+00
      0.00000000000000E+00   0.00000000000000E+00  -1.74860224785687E-16  -9.20670957002599E-28  -1.74860224786608E-16
      1.15145014177798E-15   1.40233333333333E+00   1.40233333333333E+00   0.00000000000000E+00   0.00000000000000E+00
      1.10539564701684E-15   2.57469409360412E-20   1.10542139395778E-15   2.42521817488211E-15   1.00000000000000E+00
      1.00000000000000E+00   0.00000000000000E+00   0.00000000000000E+00   0.00000000000000E+00   0.00000000000000E+00
      0.00000000000000E+00   5.28575796172996E-16
      4.92444444444445E-01
      0.00000000000000E+00   0.00000000000000E+00   0.00000000000000E+00   0.00000000000000E+00  -1.18402513187773E-19
     -9.51572702773588E-16  -9.51691105286776E-16  -4.15633042278659E-15   0.00000000000000E+00   0.00000000000000E+00
      0.00000000000000E+00   0.00000000000000E+00  -1.75939558306542E-16  -4.93701755908399E-29  -1.75939558306591E-16
      1.15145013875642E-15   1.47733333333333E+00   1.47733333333333E+00   0.00000000000000E+00   0.00000000000000E+00
      1.12760491246194E-15   2.57511314311132E-20   1.12763066359337E-15   2.48470619299585E-15   1.00000000000000E+00
      1.00000000000000E+00   0.00000000000000E+00   0.00000000000000E+00   0.00000000000000E+00   0.00000000000000E+00
      0.00000000000000E+00   5.20174091034314E-16
      5.17444444444445E-01
      0.00000000000000E+00   0.00000000000000E+00   0.00000000000000E+00   0.00000000000000E+00   3.39223584262697E-20
     -9.67766825677693E-16  -9.67732903319267E-16  -4.20710242820872E-15   0.00000000000000E+00   0.00000000000000E+00
      0.00000000000000E+00   0.00000000000000E+00  -1.77269538676756E-16  -4.52396946171155E-28  -1.77269538677208E-16
      1.15145013563864E-15   1.55233333333333E+00   1.55233333333333E+00   0.00000000000000E+00   0.00000000000000E+00
      1.14497668684610E-15   2.57551503763440E-20   1.14500244199648E-15   2.54388414044601E-15   1.00000000000000E+00
      1.00000000000000E+00   0.00000000000000E+00   0.00000000000000E+00   0.00000000000000E+00   0.00000000000000E+00
      0.00000000000000E+00   5.11768152124080E-16
      5.42444444444445E-01
      0.00000000000000E+00   0.00000000000000E+00   0.00000000000000E+00   0.00000000000000E+00  -1.43656676374811E-19
     -9.81302974414275E-16  -9.81446631090650E-16  -4.25756650446024E-15   0.00000000000000E+00   0.00000000000000E+00
      0.00000000000000E+00   0.00000000000000E+00  -1.78263533249497E-16  -1.33807032592136E-27  -1.78263533250835E-16
      1.15145013242341E-15   1.62733333333333E+00   1.62733333333333E+00   0.00000000000000E+00   0.00000000000000E+00
      1.15968440533844E-15   2.57590030422748E-20   1.15971016434148E-15   2.60275825159503E-15   1.00000000000000E+00
      1.00000000000000E+00   0.00000000000000E+00   0.00000000000000E+00   0.00000000000000E+00   0.00000000000000E+00
      0.00000000000000E+00   5.03358120441794E-16
      5.67444444444445E-01
      0.00000000000000E+00   0.00000000000000E+00   0.00000000000000E+00   0.00000000000000E+00   9.52669761708907E-20
     -9.96934199446235E-16  -9.96838932470064E-16  -4.30773172437176E-15   0.00000000000000E+00   0.00000000000000E+00
      0.00000000000000E+00   0.00000000000000E+00  -1.79719403627055E-16  -1.51496806231602E-27  -1.79719403628570E-16
      1.15145012910960E-15   1.70233333333333E+00   1.70233333333333E+00   0.00000000000000E+00   0.00000000000000E+00
      1.17653257382358E-15   2.57622750522677E-20   1.17655833609863E-15   2.66133737966017E-15   1.00000000000000E+00
      1.00000000000000E+00   0.00000000000000E+00   0.00000000000000E+00   0.00000000000000E+00   0.00000000000000E+00
      0.00000000000000E+00   4.94944215601983E-16
      5.92444444444445E-01
      0.00000000000000E+00   0.00000000000000E+00   0.00000000000000E+00   0.00000000000000E+00  -2.47182765498169E-19
     -1.02159416999195E-15  -1.02184135275745E-15  -4.35760533428984E-15   0.00000000000000E+00   0.00000000000000E+00
      0.00000000000000E+00   0.00000000000000E+00  -1.80493142389570E-16   8.71741596307952E-28  -1.80493142388698E-16
      1.15145012569644E-15   1.77733333333333E+00   1.77733333333333E+00   0.00000000000000E+00   0.00000000000000E+00
      1.20230872916800E-15   2.57659781431404E-20   1.20233449514614E-15   2.71962847757262E-15   1.00000000000000E+00
      1.00000000000000E+00   0.00000000000000E+00   0.00000000000000E+00   0.00000000000000E+00   0.00000000000000E+00
      0.00000000000000E+00   4.86526731020772E-16
      6.17444444444445E-01
      0.00000000000000E+00   0.00000000000000E+00   0.00000000000000E+00   0.00000000000000E+00  -3.50602257483028E-19
     -1.06365273165830E-15  -1.06400333391578E-15  -4.40718831186132E-15   0.00000000000000E+00   0.00000000000000E+00
      0.00000000000000E+00   0.00000000000000E+00  -1.81535773426496E-16   5.57041669873891E-28  -1.81535773425938E-16
      1.15145012218288E-15   1.85233333333333E+00   1.85233333333333E+00   0.00000000000000E+00   0.00000000000000E+00
      1.24551333862554E-15   2.57687161791353E-20   1.24553910734172E-15   2.77763215853602E-15   1.00000000000000E+00
      1.00000000000000E+00   0.00000000000000E+00   0.00000000000000E+00   0.00000000000000E+00   0.00000000000000E+00
      0.00000000000000E+00   4.78106031142418E-16
      6.42444444444445E-01
      0.00000000000000E+00   0.00000000000000E+00   0.00000000000000E+00   0.00000000000000E+00  -3.71310775381155E-19
     -1.12479035721427E-15  -1.12516166798965E-15  -4.45647216138620E-15   0.00000000000000E+00   0.00000000000000E+00
      0.00000000000000E+00   0.00000000000000E+00  -1.82642030413732E-16  -1.65013760696315E-28  -1.82642030413897E-16
      1.15145011856802E-15   1.92733333333333E+00   1.92733333333333E+00   0.00000000000000E+00   0.00000000000000E+00
      1.30777792582518E-15   2.57725783759247E-20   1.30780369840355E-15   2.83533948954319E-15   1.00000000000000E+00
      1.00000000000000E+00   0.00000000000000E+00   0.00000000000000E+00   0.00000000000000E+00   0.00000000000000E+00
      0.00000000000000E+00   4.69682553274978E-16
      6.67444444444445E-01
      0.00000000000000E+00   0.00000000000000E+00   0.00000000000000E+00   0.00000000000000E+00   5.07003025691453E-19
     -1.18992283579938E-15  -1.18941583277369E-15  -4.50543654823333E-15   0.00000000000000E+00   0.00000000000000E+00
      0.00000000000000E+00   0.00000000000000E+00  -1.84446117294297E-16  -1.60763185092377E-27  -1.84446117295905E-16
      1.15145011485102E-15   2.00233333333333E+00   2.00233333333333E+00   0.00000000000000E+00   0.00000000000000E+00
      1.37383617446596E-15   2.57756036448802E-20   1.37386195006960E-15   2.89272962471784E-15   1.00000000000000E+00
      1.00000000000000E+00   0.00000000000000E+00   0.00000000000000E+00   0.00000000000000E+00   0.00000000000000E+00
      0.00000000000000E+00   4.61256808664467E-16
      6.92444444444445E-01
      0.00000000000000E+00   0.00000000000000E+00   0.00000000000000E+00   0.00000000000000E+00   3.23263586701075E-19
     -1.24105161585827E-15  -1.24072835227157E-15  -4.55404696533787E-15   0.00000000000000E+00   0.00000000000000E+00
      0.00000000000000E+00   0.00000000000000E+00  -1.85567432726483E-16   1.09019676876229E-27  -1.85567432725392E-16
      1.15145011103096E-15   2.07733333333333E+00   2.07733333333333E+00   0.00000000000000E+00   0.00000000000000E+00
      1.42627000562035E-15   2.57793766129959E-20   1.42629578499696E-15   2.94976747820964E-15   1.00000000000000E+00
      1.00000000000000E+00   0.00000000000000E+00   0.00000000000000E+00   0.00000000000000E+00   0.00000000000000E+00
      0.00000000000000E+00   4.52829376097268E-16
      7.17444444444445E-01
      0.00000000000000E+00   0.00000000000000E+00   0.00000000000000E+00   0.00000000000000E+00  -1.11726058038519E-19
     -1.27574365312992E-15  -1.27585537918796E-15  -4.60225186064440E-15   0.00000000000000E+00   0.00000000000000E+00
      0.00000000000000E+00   0.00000000000000E+00  -1.86344760898116E-16  -2.66694189177576E-28  -1.86344760898382E-16
      1.15145010710688E-15   2.15233333333333E+00   2.15233333333333E+00   0.00000000000000E+00   0.00000000000000E+00
      1.46217435762538E-15   2.57824609551173E-20   1.46220014008634E-15   3.00640086857525E-15   1.00000000000000E+00
      1.00000000000000E+00   0.00000000000000E+00   0.00000000000000E+00   0.00000000000000E+00   0.00000000000000E+00
      0.00000000000000E+00   4.44400884962272E-16
      7.42444444444445E-01
      0.00000000000000E+00   0.00000000000000E+00   0.00000000000000E+00   0.00000000000000E+00  -2.56040741137241E-19
     -1.29895588729068E-15  -1.29921192803182E-15  -4.64997918718464E-15   0.00000000000000E+00   0.00000000000000E+00
      0.00000000000000E+00   0.00000000000000E+00  -1.87332274953129E-16  -4.26291175650628E-28  -1.87332274953555E-16
      1.15145010307781E-15   2.22733333333333E+00   2.22733333333333E+00   0.00000000000000E+00   0.00000000000000E+00
      1.48651841759302E-15   2.57853923577024E-20   1.48654420298538E-15   3.06255709488539E-15   1.00000000000000E+00
      1.00000000000000E+00   0.00000000000000E+00   0.00000000000000E+00   0.00000000000000E+00   0.00000000000000E+00
      0.00000000000000E+00   4.35971989221445E-16
      7.67444444444445E-01
      0.00000000000000E+00   0.00000000000000E+00   0.00000000000000E+00   0.00000000000000E+00  -1.70248224875845E-19
     -1.31446712628678E-15  -1.31463737451166E-15  -4.69713343362769E-15   0.00000000000000E+00   0.00000000000000E+00
      0.00000000000000E+00   0.00000000000000E+00  -1.88545313852009E-16  -1.20269063167141E-28  -1.88545313852129E-16
      1.15145009894137E-15   2.30233333333333E+00   2.30233333333333E+00   0.00000000000000E+00   0.00000000000000E+00
      1.50315690014454E-15   2.57882192440627E-20   1.50318268836379E-15   3.11813999765536E-15   1.00000000000000E+00
      1.00000000000000E+00   0.00000000000000E+00   0.00000000000000E+00   0.00000000000000E+00   0.00000000000000E+00
      0.00000000000000E+00   4.27543337030951E-16
      7.92444444444445E-01
      0.00000000000000E+00   0.00000000000000E+00   0.00000000000000E+00   0.00000000000000E+00   1.35193040072554E-20
     -1.32529382232370E-15  -1.32528030301969E-15  -4.74359662317363E-15   0.00000000000000E+00   0.00000000000000E+00
      0.00000000000000E+00   0.00000000000000E+00  -1.89852311786154E-16  -5.63250858162545E-29  -1.89852311786210E-16
      1.15145009469824E-15   2.37733333333333E+00   2.37733333333333E+00   0.00000000000000E+00   0.00000000000000E+00
      1.51510682387009E-15   2.57909358187003E-20   1.51513261480590E-15   3.17303098532604E-15   1.00000000000000E+00
      1.00000000000000E+00   0.00000000000000E+00   0.00000000000000E+00   0.00000000000000E+00   0.00000000000000E+00
      0.00000000000000E+00   4.19115543149355E-16
      8.17444444444445E-01
      0.00000000000000E+00   0.00000000000000E+00   0.00000000000000E+00   0.00000000000000E+00  -2.68482033883588E-19
     -1.33383322381967E-15  -1.33410170585356E-15  -4.78924098538295E-15   0.00000000000000E+00   0.00000000000000E+00
      0.00000000000000E+00   0.00000000000000E+00  -1.90689879409129E-16   5.26253524038127E-28  -1.90689879408602E-16
      1.15145009034649E-15   2.45233333333333E+00   2.45233333333333E+00   0.00000000000000E+00   0.00000000000000E+00
      1.52476579172547E-15   2.57935366879924E-20   1.52479158526216E-15   3.22710172143516E-15   1.00000000000000E+00
      1.00000000000000E+00   0.00000000000000E+00   0.00000000000000E+00   0.00000000000000E+00   0.00000000000000E+00
      0.00000000000000E+00   4.10689173601306E-16
      8.42444444444445E-01
      0.00000000000000E+00   0.00000000000000E+00   0.00000000000000E+00   0.00000000000000E+00   2.21333653164646E-19
     -1.34154921178129E-15  -1.34132787812813E-15  -4.83396322929267E-15   0.00000000000000E+00   0.00000000000000E+00
      0.00000000000000E+00   0.00000000000000E+00  -1.92295792930306E-16  -1.22740847611684E-27  -1.92295792931533E-16
      1.15145008588497E-15   2.52733333333333E+00   2.52733333333333E+00   0.00000000000000E+00   0.00000000000000E+00
      1.53359787504078E-15   2.57960188800273E-20   1.53362367105966E-15   3.28024838953353E-15   1.00000000000000E+00
      1.00000000000000E+00   0.00000000000000E+00   0.00000000000000E+00   0.00000000000000E+00   0.00000000000000E+00
      0.00000000000000E+00   4.02264753874159E-16
      8.67444444444445E-01
      0.00000000000000E+00   0.00000000000000E+00   0.00000000000000E+00   0.00000000000000E+00   1.13254789101963E-19