DF-ISE text

Info {
  version   = 1.0
  type      = xyplot
  datasets  = [
    "time"
    "substrate OuterVoltage" "substrate InnerVoltage" "substrate QuasiFermiPotential" "substrate DisplacementCurrent" "substrate eCurrent"
    "substrate hCurrent" "substrate TotalCurrent" "substrate Charge" "source OuterVoltage" "source InnerVoltage"
    "source QuasiFermiPotential" "source DisplacementCurrent" "source eCurrent" "source hCurrent" "source TotalCurrent"
    "source Charge" "drain OuterVoltage" "drain InnerVoltage" "drain QuasiFermiPotential" "drain DisplacementCurrent"
    "drain eCurrent" "drain hCurrent" "drain TotalCurrent" "drain Charge" "gate OuterVoltage"
    "gate InnerVoltage" "gate QuasiFermiPotential" "gate DisplacementCurrent" "gate eCurrent" "gate hCurrent"
    "gate TotalCurrent" "gate Charge" ]
  functions = [
    Time
    OuterVoltage InnerVoltage QuasiFermiPotential DisplacementCurrent eCurrent
    hCurrent TotalCurrent Charge OuterVoltage InnerVoltage
    QuasiFermiPotential DisplacementCurrent eCurrent hCurrent TotalCurrent
    Charge OuterVoltage InnerVoltage QuasiFermiPotential DisplacementCurrent
    eCurrent hCurrent TotalCurrent Charge OuterVoltage
    InnerVoltage QuasiFermiPotential DisplacementCurrent eCurrent hCurrent
    TotalCurrent Charge ]
}

Data {
      0.00000000000000E+00
      0.00000000000000E+00   0.00000000000000E+00   0.00000000000000E+00   0.00000000000000E+00   1.23862964222848E-22
      7.53684462107816E-24   1.31399808843926E-22  -4.48130595013120E-15   0.00000000000000E+00   0.00000000000000E+00
      0.00000000000000E+00   0.00000000000000E+00  -8.03252261017106E-23  -4.07230424004914E-24  -8.43975303417597E-23
      2.07784500483796E-15   0.00000000000000E+00   0.00000000000000E+00   0.00000000000000E+00   0.00000000000000E+00
     -4.35377377499153E-23  -3.46454075225108E-24  -4.70022785021664E-23   2.07784500483796E-15   0.00000000000000E+00
      0.00000000000000E+00   0.00000000000000E+00   0.00000000000000E+00   0.00000000000000E+00   0.00000000000000E+00
      0.00000000000000E+00   3.25615940455287E-16
      1.00000000000000E-02
      0.00000000000000E+00   0.00000000000000E+00   0.00000000000000E+00   0.00000000000000E+00   1.36460734550583E-19
     -4.58296155340699E-17  -4.56931547995193E-17  -4.52841217304083E-15   0.00000000000000E+00   0.00000000000000E+00
      0.00000000000000E+00   0.00000000000000E+00  -9.81119415242997E-20   3.03157084060380E-24  -9.81089099534591E-20
      2.07784500483793E-15   3.00000000000000E-02   3.00000000000000E-02   0.00000000000000E+00   0.00000000000000E+00
      4.57709078849146E-17   2.03558245582355E-20   4.57912637094729E-17   2.12719168651719E-15   0.00000000000000E+00
      0.00000000000000E+00   0.00000000000000E+00   0.00000000000000E+00   0.00000000000000E+00   0.00000000000000E+00
      0.00000000000000E+00   3.23375481685696E-16
      2.33333333333333E-02
      0.00000000000000E+00   0.00000000000000E+00   0.00000000000000E+00   0.00000000000000E+00   9.61016622292333E-18
     -8.62624267461414E-17  -7.66522605232180E-17  -4.59082279766459E-15   0.00000000000000E+00   0.00000000000000E+00
      0.00000000000000E+00   0.00000000000000E+00  -1.31224515594916E-19   1.29754405232076E-24  -1.31223218050864E-19
      2.07784500483785E-15   7.00000000000000E-02   7.00000000000000E-02   0.00000000000000E+00   0.00000000000000E+00
      7.71703504114895E-17  -3.86866670220669E-19   7.67834837412688E-17   2.19257369533817E-15   0.00000000000000E+00
      0.00000000000000E+00   0.00000000000000E+00   0.00000000000000E+00   0.00000000000000E+00   0.00000000000000E+00
      0.00000000000000E+00   3.20404097488566E-16
      4.28888888888889E-02
      0.00000000000000E+00   0.00000000000000E+00   0.00000000000000E+00   0.00000000000000E+00  -7.24752126999424E-20
     -1.35702267860750E-16  -1.35774743073450E-16  -4.68160431495548E-15   0.00000000000000E+00   0.00000000000000E+00
      0.00000000000000E+00   0.00000000000000E+00  -1.36851958680019E-19   1.82879896565171E-24  -1.36850129881054E-19
      2.07784500483789E-15   1.28666666666667E-01   1.28666666666667E-01   0.00000000000000E+00   0.00000000000000E+00
      1.35849702167503E-16   6.18910358274753E-20   1.35911593203331E-16   2.28767489284516E-15   0.00000000000000E+00
      0.00000000000000E+00   0.00000000000000E+00   0.00000000000000E+00   0.00000000000000E+00   0.00000000000000E+00
      0.00000000000000E+00   3.16084417272435E-16
      6.78888888888889E-02
      0.00000000000000E+00   0.00000000000000E+00   0.00000000000000E+00   0.00000000000000E+00  -7.24786610125036E-20
     -2.13126392039017E-16  -2.13198870700030E-16  -4.79642352742712E-15   0.00000000000000E+00   0.00000000000000E+00
      0.00000000000000E+00   0.00000000000000E+00  -1.36815722870396E-19   2.86381208703491E-24  -1.36812859058309E-19
      2.07784500483785E-15   2.03666666666667E-01   2.03666666666667E-01   0.00000000000000E+00   0.00000000000000E+00
      2.13287517640749E-16   4.81659183394472E-20   2.13335683559088E-16   2.40793744853072E-15   0.00000000000000E+00
      0.00000000000000E+00   0.00000000000000E+00   0.00000000000000E+00   0.00000000000000E+00   0.00000000000000E+00
      0.00000000000000E+00   3.10641074058543E-16
      9.28888888888889E-02
      0.00000000000000E+00   0.00000000000000E+00   0.00000000000000E+00   0.00000000000000E+00  -7.24512766439825E-20
     -3.23172993671565E-16  -3.23245444948209E-16  -4.90984745695908E-15   0.00000000000000E+00   0.00000000000000E+00
      0.00000000000000E+00   0.00000000000000E+00  -1.37166217958109E-19  -3.07378070052754E-24  -1.37169291738810E-19
      2.07784500483780E-15   2.78666666666667E-01   2.78666666666667E-01   0.00000000000000E+00   0.00000000000000E+00
      3.23327018289152E-16   5.55959507952872E-20   3.23382614239947E-16   2.52670585861406E-15   0.00000000000000E+00
      0.00000000000000E+00   0.00000000000000E+00   0.00000000000000E+00   0.00000000000000E+00   0.00000000000000E+00
      0.00000000000000E+00   3.05296593507222E-16
      1.17888888888889E-01
      0.00000000000000E+00   0.00000000000000E+00   0.00000000000000E+00   0.00000000000000E+00  -7.27024433666728E-20
     -4.62736287571094E-16  -4.62808990014461E-16  -5.02178684006804E-15   0.00000000000000E+00   0.00000000000000E+00
      0.00000000000000E+00   0.00000000000000E+00  -1.37247669338126E-19  -3.52573206696606E-24  -1.37251195070193E-19
      2.07784500483774E-15   3.53666666666667E-01   3.53666666666667E-01   0.00000000000000E+00   0.00000000000000E+00
      4.62897586301174E-16   4.86549083567386E-20   4.62946241209531E-16   2.64389881044388E-15   0.00000000000000E+00
      0.00000000000000E+00   0.00000000000000E+00   0.00000000000000E+00   0.00000000000000E+00   0.00000000000000E+00
      0.00000000000000E+00   3.00043024786416E-16
      1.42888888888889E-01
      0.00000000000000E+00   0.00000000000000E+00   0.00000000000000E+00   0.00000000000000E+00  -7.25827761416869E-20
     -6.22928521814899E-16  -6.23001104591041E-16  -5.13207534081197E-15   0.00000000000000E+00   0.00000000000000E+00
      0.00000000000000E+00   0.00000000000000E+00  -1.37335282133416E-19   1.65667775469953E-24  -1.37333625455661E-19
      2.07784500483766E-15   4.28666666666667E-01   4.28666666666667E-01   0.00000000000000E+00   0.00000000000000E+00
      6.23093128511885E-16   4.53097046109681E-20   6.23138438216497E-16   2.75937910598465E-15   0.00000000000000E+00
      0.00000000000000E+00   0.00000000000000E+00   0.00000000000000E+00   0.00000000000000E+00   0.00000000000000E+00
      0.00000000000000E+00   2.94851229989658E-16
      1.67888888888889E-01
      0.00000000000000E+00   0.00000000000000E+00   0.00000000000000E+00   0.00000000000000E+00  -7.27564020636276E-20
     -8.12782435103045E-16  -8.12855191505109E-16  -5.24042753253223E-15   0.00000000000000E+00   0.00000000000000E+00
      0.00000000000000E+00   0.00000000000000E+00  -1.37751078951501E-19  -2.37645640223820E-25  -1.37751316597141E-19
      2.07784500483758E-15   5.03666666666667E-01   5.03666666666667E-01   0.00000000000000E+00   0.00000000000000E+00
      8.12965920727878E-16   2.70220938286390E-20   8.12992942821707E-16   2.87289476618751E-15   0.00000000000000E+00
      0.00000000000000E+00   0.00000000000000E+00   0.00000000000000E+00   0.00000000000000E+00   0.00000000000000E+00
      0.00000000000000E+00   2.89687761507140E-16
      1.92888888888889E-01
      0.00000000000000E+00   0.00000000000000E+00   0.00000000000000E+00   0.00000000000000E+00  -7.33635739797742E-20
     -1.04428841704140E-15  -1.04436178061538E-15  -5.34639859470707E-15   0.00000000000000E+00   0.00000000000000E+00
      0.00000000000000E+00   0.00000000000000E+00  -1.37892696747006E-19   2.58792520262277E-24  -1.37890108821803E-19
      2.07784500483748E-15   5.78666666666667E-01   5.78666666666667E-01   0.00000000000000E+00   0.00000000000000E+00
      1.04441416566175E-15   8.55050624501040E-20   1.04449967072420E-15   2.98402408413612E-15   0.00000000000000E+00
      0.00000000000000E+00   0.00000000000000E+00   0.00000000000000E+00   0.00000000000000E+00   0.00000000000000E+00
      0.00000000000000E+00   2.84529505733476E-16
      2.17888888888889E-01
      0.00000000000000E+00   0.00000000000000E+00   0.00000000000000E+00   0.00000000000000E+00  -6.26485485466718E-20
     -1.27666462534819E-15  -1.27672727389673E-15  -5.44940436014182E-15   0.00000000000000E+00   0.00000000000000E+00
      0.00000000000000E+00   0.00000000000000E+00  -1.38028808129686E-19  -3.87908449279450E-24  -1.38032687214179E-19
      2.07784500483737E-15   6.53666666666667E-01   6.53666666666667E-01   0.00000000000000E+00   0.00000000000000E+00
      1.27680266459097E-15   6.26419929714917E-20   1.27686530658395E-15   3.09219464185658E-15   0.00000000000000E+00
      0.00000000000000E+00   0.00000000000000E+00   0.00000000000000E+00   0.00000000000000E+00   0.00000000000000E+00
      0.00000000000000E+00   2.79364713447872E-16
      2.42888888888889E-01
      0.00000000000000E+00   0.00000000000000E+00   0.00000000000000E+00   0.00000000000000E+00  -7.28979201227629E-20
     -1.44340268626033E-15  -1.44347558418045E-15  -5.54886452126747E-15   0.00000000000000E+00   0.00000000000000E+00
      0.00000000000000E+00   0.00000000000000E+00  -1.38402528799287E-19  -1.61995445579450E-24  -1.38404148753742E-19
      2.07784500483730E-15   7.28666666666667E-01   7.28666666666666E-01   0.00000000000000E+00   0.00000000000000E+00
      1.44356848176009E-15   4.55065691176603E-20   1.44361398832921E-15   3.19683098551441E-15   0.00000000000000E+00
      0.00000000000000E+00   0.00000000000000E+00   0.00000000000000E+00   0.00000000000000E+00   0.00000000000000E+00
      0.00000000000000E+00   2.74188530915767E-16
      2.67888888888889E-01
      0.00000000000000E+00   0.00000000000000E+00   0.00000000000000E+00   0.00000000000000E+00  -7.30861482594426E-20
     -1.53893386527876E-15  -1.53900695142702E-15  -5.64451251129629E-15   0.00000000000000E+00   0.00000000000000E+00
      0.00000000000000E+00   0.00000000000000E+00  -1.38422479122515E-19   5.76250342780940E-24  -1.38416716619087E-19
      2.07784500483725E-15   8.03666666666667E-01   8.03666666666667E-01   0.00000000000000E+00   0.00000000000000E+00
      1.53910002951075E-15   4.53386328905673E-20   1.53914536814364E-15   3.29766813464898E-15   0.00000000000000E+00
      0.00000000000000E+00   0.00000000000000E+00   0.00000000000000E+00   0.00000000000000E+00   0.00000000000000E+00
      0.00000000000000E+00   2.68999371810056E-16
      2.92888888888889E-01
      0.00000000000000E+00   0.00000000000000E+00   0.00000000000000E+00   0.00000000000000E+00  -7.32757303128787E-20
     -1.59502809839903E-15  -1.59510137412934E-15  -5.73669654632058E-15   0.00000000000000E+00   0.00000000000000E+00
      0.00000000000000E+00   0.00000000000000E+00  -1.38581434205901E-19   2.32433785233608E-24  -1.38579109868049E-19
      2.07784500483723E-15   8.78666666666667E-01   8.78666666666667E-01   0.00000000000000E+00   0.00000000000000E+00
      1.59519460665131E-15   4.53465879049628E-20   1.59523995323921E-15   3.39505453040324E-15   0.00000000000000E+00
      0.00000000000000E+00   0.00000000000000E+00   0.00000000000000E+00   0.00000000000000E+00   0.00000000000000E+00
      0.00000000000000E+00   2.63797011080121E-16
      3.17888888888889E-01
      0.00000000000000E+00   0.00000000000000E+00   0.00000000000000E+00   0.00000000000000E+00  -7.32720752543517E-20
     -1.63438820837508E-15  -1.63446148045033E-15  -5.82629722967072E-15   0.00000000000000E+00   0.00000000000000E+00
      0.00000000000000E+00   0.00000000000000E+00  -1.38857587330591E-19   7.57139165084894E-24  -1.38850015938940E-19
      2.07784500483721E-15   9.53666666666667E-01   9.53666666666667E-01   0.00000000000000E+00   0.00000000000000E+00
      1.63455497612504E-15   4.53543412362598E-20   1.63460033046627E-15   3.48987048963795E-15   0.00000000000000E+00
      0.00000000000000E+00   0.00000000000000E+00   0.00000000000000E+00   0.00000000000000E+00   0.00000000000000E+00
      0.00000000000000E+00   2.58581735195570E-16
      3.42888888888889E-01
      0.00000000000000E+00   0.00000000000000E+00   0.00000000000000E+00   0.00000000000000E+00  -7.33366365928767E-20
     -1.66425493672116E-15  -1.66432827335776E-15  -5.91426821874067E-15   0.00000000000000E+00   0.00000000000000E+00
      0.00000000000000E+00   0.00000000000000E+00  -1.39049378905751E-19   8.81828550455134E-24  -1.39040560620247E-19
      2.07784500483719E-15   1.02866666666667E+00   1.02866666666667E+00   0.00000000000000E+00   0.00000000000000E+00
      1.66442195219284E-15   4.53617255371447E-20   1.66446731391838E-15   3.58306924981958E-15   0.00000000000000E+00
      0.00000000000000E+00   0.00000000000000E+00   0.00000000000000E+00   0.00000000000000E+00   0.00000000000000E+00
      0.00000000000000E+00   2.53353964083901E-16
      3.67888888888889E-01
      0.00000000000000E+00   0.00000000000000E+00   0.00000000000000E+00   0.00000000000000E+00  -7.33619988824059E-20
     -1.68467560246019E-15  -1.68474896445907E-15  -6.00128393114754E-15   0.00000000000000E+00   0.00000000000000E+00
      0.00000000000000E+00   0.00000000000000E+00  -1.39275449981970E-19  -1.34583653613667E-24  -1.39276795818507E-19
      2.07784500483718E-15   1.10366666666667E+00   1.10366666666667E+00   0.00000000000000E+00   0.00000000000000E+00
      1.68484287151458E-15   4.53697403068042E-20   1.68488824125489E-15   3.67532485500491E-15   0.00000000000000E+00
      0.00000000000000E+00   0.00000000000000E+00   0.00000000000000E+00   0.00000000000000E+00   0.00000000000000E+00
      0.00000000000000E+00   2.48114071305444E-16
      3.92888888888889E-01
      0.00000000000000E+00   0.00000000000000E+00   0.00000000000000E+00   0.00000000000000E+00  -7.26128841262894E-20
     -1.70017130921747E-15  -1.70024392210160E-15  -6.08770550738124E-15   0.00000000000000E+00   0.00000000000000E+00
      0.00000000000000E+00   0.00000000000000E+00  -1.39472838158240E-19   5.02899943544588E-25  -1.39472335258297E-19
      2.07784500483720E-15   1.17866666666667E+00   1.17866666666667E+00   0.00000000000000E+00   0.00000000000000E+00
      1.70033819895084E-15   4.51954860112518E-20   1.70038339443686E-15   3.76699818550833E-15   0.00000000000000E+00
      0.00000000000000E+00   0.00000000000000E+00   0.00000000000000E+00   0.00000000000000E+00   0.00000000000000E+00
      0.00000000000000E+00   2.42862317035693E-16
      4.17888888888889E-01
      0.00000000000000E+00   0.00000000000000E+00   0.00000000000000E+00   0.00000000000000E+00  -7.37130877360454E-20
     -1.71536247922676E-15  -1.71543619231449E-15  -6.17368932411997E-15   0.00000000000000E+00   0.00000000000000E+00
      0.00000000000000E+00   0.00000000000000E+00  -1.39414986511398E-19   2.71802344519920E-24  -1.39412268487953E-19
      2.07784500483716E-15   1.25366666666667E+00   1.25366666666667E+00   0.00000000000000E+00   0.00000000000000E+00
      1.71553021987896E-15   4.53847040193263E-20   1.71557560458298E-15   3.85824547243671E-15   0.00000000000000E+00
      0.00000000000000E+00   0.00000000000000E+00   0.00000000000000E+00   0.00000000000000E+00   0.00000000000000E+00
      0.00000000000000E+00   2.37598846846093E-16
      4.42888888888889E-01
      0.00000000000000E+00   0.00000000000000E+00   0.00000000000000E+00   0.00000000000000E+00  -7.37113937072851E-20
     -1.73268262177064E-15  -1.73275633316434E-15  -6.25928738874682E-15   0.00000000000000E+00   0.00000000000000E+00
      0.00000000000000E+00   0.00000000000000E+00  -1.39653862438716E-19  -2.06881081849641E-24  -1.39655931249534E-19
      2.07784500483715E-15   1.32866666666667E+00   1.32866666666667E+00   0.00000000000000E+00   0.00000000000000E+00
      1.73285059620288E-15   4.53928927146294E-20   1.73289598909559E-15   3.94911866694867E-15   0.00000000000000E+00
      0.00000000000000E+00   0.00000000000000E+00   0.00000000000000E+00   0.00000000000000E+00   0.00000000000000E+00
      0.00000000000000E+00   2.32323716960985E-16
      4.67888888888889E-01
      0.00000000000000E+00   0.00000000000000E+00   0.00000000000000E+00   0.00000000000000E+00  -7.38035783141672E-20
     -1.75358179805906E-15  -1.75365560163738E-15  -6.34450933021651E-15   0.00000000000000E+00   0.00000000000000E+00
      0.00000000000000E+00   0.00000000000000E+00  -1.39792538660637E-19  -5.94238276407635E-24  -1.39798481043401E-19
      2.07784500483714E-15   1.40366666666667E+00   1.40366666666667E+00   0.00000000000000E+00   0.00000000000000E+00
      1.75374999902097E-15   4.54010974547378E-20   1.75379540011842E-15   4.03962739811903E-15   0.00000000000000E+00
      0.00000000000000E+00   0.00000000000000E+00   0.00000000000000E+00   0.00000000000000E+00   0.00000000000000E+00
      0.00000000000000E+00   2.27036927260335E-16
      4.92888888888889E-01
      0.00000000000000E+00   0.00000000000000E+00   0.00000000000000E+00   0.00000000000000E+00  -7.39414064091086E-20
     -1.77705963430632E-15  -1.77713357571273E-15  -6.42935538934740E-15   0.00000000000000E+00   0.00000000000000E+00
      0.00000000000000E+00   0.00000000000000E+00  -1.39878604707942E-19   5.64122223477132E-24  -1.39872963485707E-19
      2.07784500483713E-15   1.47866666666667E+00   1.47866666666667E+00   0.00000000000000E+00   0.00000000000000E+00
      1.77722803949371E-15   4.54091824977097E-20   1.77727344867621E-15   4.12977192801737E-15   0.00000000000000E+00
      0.00000000000000E+00   0.00000000000000E+00   0.00000000000000E+00   0.00000000000000E+00   0.00000000000000E+00
      0.00000000000000E+00   2.21738456492901E-16
      5.17888888888889E-01
      0.00000000000000E+00   0.00000000000000E+00   0.00000000000000E+00   0.00000000000000E+00  -7.38627028307757E-20
     -1.80064968268639E-15  -1.80072354538922E-15  -6.51382851870992E-15   0.00000000000000E+00   0.00000000000000E+00
      0.00000000000000E+00   0.00000000000000E+00  -1.40174499918403E-19  -5.70487200983668E-24  -1.40180204790413E-19
      2.07784500483712E-15   1.55366666666667E+00   1.55366666666667E+00   0.00000000000000E+00   0.00000000000000E+00
      1.80081830860787E-15   4.54169861422229E-20   1.80086372559401E-15   4.21955521736887E-15   0.00000000000000E+00
      0.00000000000000E+00   0.00000000000000E+00   0.00000000000000E+00   0.00000000000000E+00   0.00000000000000E+00
      0.00000000000000E+00   2.16428296503903E-16
      5.42888888888889E-01
      0.00000000000000E+00   0.00000000000000E+00   0.00000000000000E+00   0.00000000000000E+00  -7.39758826335155E-20
     -1.82652786790555E-15  -1.82660184378818E-15  -6.59793260210174E-15   0.00000000000000E+00   0.00000000000000E+00
      0.00000000000000E+00   0.00000000000000E+00  -1.40272785222741E-19   7.23305703871498E-25  -1.40272061917038E-19
      2.07784500483711E-15   1.62866666666667E+00   1.62866666666667E+00   0.00000000000000E+00   0.00000000000000E+00
      1.82669669137001E-15   4.54244800922811E-20   1.82674211585010E-15   4.30898111125012E-15   0.00000000000000E+00
      0.00000000000000E+00   0.00000000000000E+00   0.00000000000000E+00   0.00000000000000E+00   0.00000000000000E+00
      0.00000000000000E+00   2.11106486014508E-16
      5.67888888888889E-01
      0.00000000000000E+00   0.00000000000000E+00   0.00000000000000E+00   0.00000000000000E+00  -7.38802292134147E-20
     -1.86353952863755E-15  -1.86361340886677E-15  -6.68166655920662E-15   0.00000000000000E+00   0.00000000000000E+00
      0.00000000000000E+00   0.00000000000000E+00  -1.40576032362223E-19   3.26557052311640E-24  -1.40572766791700E-19
      2.07784500483709E-15   1.70366666666667E+00   1.70366666666667E+00   0.00000000000000E+00   0.00000000000000E+00
      1.86370854993770E-15   4.54316958573774E-20   1.86375398163356E-15   4.39804840889532E-15   0.00000000000000E+00
      0.00000000000000E+00   0.00000000000000E+00   0.00000000000000E+00   0.00000000000000E+00   0.00000000000000E+00
      0.00000000000000E+00   2.05773145474217E-16
      5.92888888888889E-01
      0.00000000000000E+00   0.00000000000000E+00   0.00000000000000E+00   0.00000000000000E+00  -7.40156477150218E-20
     -1.92699484785023E-15  -1.92706886349795E-15  -6.76502036847079E-15   0.00000000000000E+00   0.00000000000000E+00
      0.00000000000000E+00   0.00000000000000E+00  -1.40644097844600E-19  -5.58769874870401E-24  -1.40649685543348E-19
      2.07784500483693E-15   1.77866666666667E+00   1.77866666666667E+00   0.00000000000000E+00   0.00000000000000E+00
      1.92716411607187E-15   4.53971116176662E-20   1.92720951318349E-15   4.48674686397269E-15   0.00000000000000E+00
      0.00000000000000E+00   0.00000000000000E+00   0.00000000000000E+00   0.00000000000000E+00   0.00000000000000E+00
      0.00000000000000E+00   2.00428499661155E-16
      6.17888888888889E-01
      0.00000000000000E+00   0.00000000000000E+00   0.00000000000000E+00   0.00000000000000E+00  -7.41524027067566E-20
     -2.03299107266190E-15  -2.03306522506460E-15  -6.84797231720577E-15   0.00000000000000E+00   0.00000000000000E+00
      0.00000000000000E+00   0.00000000000000E+00  -1.40697415715694E-19   5.65258256735061E-24  -1.40691763133127E-19
      2.07784500483700E-15   1.85366666666667E+00   1.85366666666667E+00   0.00000000000000E+00   0.00000000000000E+00
      2.03316050015129E-15   4.54166764481072E-20   2.03320591682774E-15   4.57505444731818E-15   0.00000000000000E+00
      0.00000000000000E+00   0.00000000000000E+00   0.00000000000000E+00   0.00000000000000E+00   0.00000000000000E+00
      0.00000000000000E+00   1.95072865050590E-16
      6.42888888888889E-01
      0.00000000000000E+00   0.00000000000000E+00   0.00000000000000E+00   0.00000000000000E+00  -7.40995237368787E-20
     -2.17719118034157E-15  -2.17726527986531E-15  -6.93048525738824E-15   0.00000000000000E+00   0.00000000000000E+00
      0.00000000000000E+00   0.00000000000000E+00  -1.40917106895042E-19   2.39556379894642E-24  -1.40914711331243E-19
      2.07784500483700E-15   1.92866666666667E+00   1.92866666666667E+00   0.00000000000000E+00   0.00000000000000E+00
      2.17736074494085E-15   4.54496357969573E-20   2.17740619457664E-15   4.66293365282868E-15   0.00000000000000E+00
      0.00000000000000E+00   0.00000000000000E+00   0.00000000000000E+00   0.00000000000000E+00   0.00000000000000E+00
      0.00000000000000E+00   1.89706599722567E-16
      6.67888888888889E-01
      0.00000000000000E+00   0.00000000000000E+00   0.00000000000000E+00   0.00000000000000E+00  -7.39385459502099E-20
     -2.32100567732744E-15  -2.32107961587339E-15  -7.01250145649478E-15   0.00000000000000E+00   0.00000000000000E+00
      0.00000000000000E+00   0.00000000000000E+00  -1.41070652145190E-19  -4.26284212278932E-24  -1.41074914987313E-19
      2.07784500483699E-15   2.00366666666667E+00   2.00366666666667E+00   0.00000000000000E+00   0.00000000000000E+00
      2.32117523424579E-15   4.54565425833265E-20   2.32122069078838E-15   4.75032640995892E-15   0.00000000000000E+00
      0.00000000000000E+00   0.00000000000000E+00   0.00000000000000E+00   0.00000000000000E+00   0.00000000000000E+00
      0.00000000000000E+00   1.84330041698860E-16
      6.92888888888889E-01
      0.00000000000000E+00   0.00000000000000E+00   0.00000000000000E+00   0.00000000000000E+00  -7.37508587463943E-20
     -2.42472143217903E-15  -2.42479518303778E-15  -7.09393641551828E-15   0.00000000000000E+00   0.00000000000000E+00
      0.00000000000000E+00   0.00000000000000E+00  -1.41113394112469E-19   3.67935940706995E-24  -1.41109714753062E-19
      2.07784500483705E-15   2.07866666666667E+00   2.07866666666667E+00   0.00000000000000E+00   0.00000000000000E+00
      2.42489083617034E-15   4.54565821827798E-20   2.42493629275253E-15   4.83714794726359E-15   0.00000000000000E+00
      0.00000000000000E+00   0.00000000000000E+00   0.00000000000000E+00   0.00000000000000E+00   0.00000000000000E+00
      0.00000000000000E+00   1.78943463417628E-16
      7.17888888888889E-01
      0.00000000000000E+00   0.00000000000000E+00   0.00000000000000E+00   0.00000000000000E+00  -7.36584831303749E-20
     -2.48305891675476E-15  -2.48313257523789E-15  -7.17467167843510E-15   0.00000000000000E+00   0.00000000000000E+00
      0.00000000000000E+00   0.00000000000000E+00  -1.41489194023828E-19  -2.93770528084284E-24  -1.41492131729108E-19
      2.07784500483723E-15   2.15366666666667E+00   2.15366666666667E+00   0.00000000000000E+00   0.00000000000000E+00
      2.48322863176819E-15   4.54356014237833E-20   2.48327406736962E-15   4.92327962158895E-15   0.00000000000000E+00
      0.00000000000000E+00   0.00000000000000E+00   0.00000000000000E+00   0.00000000000000E+00   0.00000000000000E+00
      0.00000000000000E+00   1.73547052008905E-16
      7.42888888888889E-01
      0.00000000000000E+00   0.00000000000000E+00   0.00000000000000E+00   0.00000000000000E+00  -7.42337508962172E-20
     -2.51184618146901E-15  -2.51192041521991E-15  -7.25454700014064E-15   0.00000000000000E+00   0.00000000000000E+00
      0.00000000000000E+00   0.00000000000000E+00  -1.41524527130448E-19   3.37179216131477E-24  -1.41521155338287E-19
      2.07784500483762E-15   2.22866666666667E+00   2.22866666666667E+00   0.00000000000000E+00   0.00000000000000E+00
      2.51201654446521E-15   4.53919100350557E-20   2.51206193637525E-15   5.00856108496704E-15   0.00000000000000E+00
      0.00000000000000E+00   0.00000000000000E+00   0.00000000000000E+00   0.00000000000000E+00   0.00000000000000E+00
      0.00000000000000E+00   1.68140910335981E-16
      7.67888888888889E-01
      0.00000000000000E+00   0.00000000000000E+00   0.00000000000000E+00   0.00000000000000E+00  -7.44701200206273E-20
     -2.52608164150684E-15  -2.52615611162687E-15  -7.33335469671232E-15   0.00000000000000E+00   0.00000000000000E+00
      0.00000000000000E+00   0.00000000000000E+00  -1.41776600020648E-19   1.21202107363093E-24  -1.41775387999574E-19
      2.07784500483679E-15   2.30366666666667E+00   2.30366666666667E+00   0.00000000000000E+00   0.00000000000000E+00
      2.52625240550963E-15   4.54815052379739E-20   2.52629788701487E-15   5.09278462225257E-15   0.00000000000000E+00
      0.00000000000000E+00   0.00000000000000E+00   0.00000000000000E+00   0.00000000000000E+00   0.00000000000000E+00
      0.00000000000000E+00   1.62725069622955E-16
      7.92888888888889E-01
      0.00000000000000E+00   0.00000000000000E+00   0.00000000000000E+00   0.00000000000000E+00  -7.44562144257605E-20
     -2.53439223889148E-15  -2.53446669510591E-15  -7.41084489105133E-15   0.00000000000000E+00   0.00000000000000E+00
      0.00000000000000E+00   0.00000000000000E+00  -1.42031084239391E-19   8.20634126668326E-24  -1.42022877898125E-19
      2.07784500483678E-15   2.37866666666667E+00   2.37866666666667E+00   0.00000000000000E+00   0.00000000000000E+00
      2.53456323114993E-15   4.54868338803840E-20   2.53460871798381E-15   5.17570038012011E-15   0.00000000000000E+00
      0.00000000000000E+00   0.00000000000000E+00   0.00000000000000E+00   0.00000000000000E+00   0.00000000000000E+00
      0.00000000000000E+00   1.57299506094435E-16
      8.17888888888889E-01
      0.00000000000000E+00   0.00000000000000E+00   0.00000000000000E+00   0.00000000000000E+00  -7.46608201096531E-20
     -2.54080690171105E-15  -2.54088156253116E-15  -7.48675915930731E-15   0.00000000000000E+00   0.00000000000000E+00
      0.00000000000000E+00   0.00000000000000E+00  -1.42067303159753E-19  -6.24787053525587E-24  -1.42073551030289E-19
      2.07784500483678E-15   2.45366666666667E+00   2.45366666666667E+00   0.00000000000000E+00   0.00000000000000E+00
      2.54097814413589E-15   4.54919463008214E-20   2.54102363608219E-15   5.25704999756566E-15   0.00000000000000E+00
      0.00000000000000E+00   0.00000000000000E+00   0.00000000000000E+00   0.00000000000000E+00   0.00000000000000E+00
      0.00000000000000E+00   1.51864156904846E-16
      8.42888888888889E-01
      0.00000000000000E+00   0.00000000000000E+00   0.00000000000000E+00   0.00000000000000E+00  -7.48581156084169E-20
     -2.54681418102413E-15  -2.54688903913974E-15  -7.56091030983499E-15   0.00000000000000E+00   0.00000000000000E+00
      0.00000000000000E+00   0.00000000000000E+00  -1.42110106269860E-19  -3.02972227027619E-24  -1.42113135992130E-19
      2.07784500483678E-15   2.52866666666667E+00   2.52866666666667E+00   0.00000000000000E+00   0.00000000000000E+00
      2.54698565543968E-15   4.54968360524531E-20   2.54703115227573E-15   5.33664637185192E-15   0.00000000000000E+00
      0.00000000000000E+00   0.00000000000000E+00   0.00000000000000E+00   0.00000000000000E+00   0.00000000000000E+00
      0.00000000000000E+00   1.46418933146279E-16
      8.67888888888889E-01
      0.00000000000000E+00   0.00000000000000E+00   0.00000000000000E+00   0.00000000000000E+00  -7.49116302784393E-20