DF-ISE text

Info {
  version   = 1.0
  type      = xyplot
  datasets  = [
    "time"
    "substrate OuterVoltage" "substrate InnerVoltage" "substrate QuasiFermiPotential" "substrate DisplacementCurrent" "substrate eCurrent"
    "substrate hCurrent" "substrate TotalCurrent" "substrate Charge" "source OuterVoltage" "source InnerVoltage"
    "source QuasiFermiPotential" "source DisplacementCurrent" "source eCurrent" "source hCurrent" "source TotalCurrent"
    "source Charge" "drain OuterVoltage" "drain InnerVoltage" "drain QuasiFermiPotential" "drain DisplacementCurrent"
    "drain eCurrent" "drain hCurrent" "drain TotalCurrent" "drain Charge" "gate OuterVoltage"
    "gate InnerVoltage" "gate QuasiFermiPotential" "gate DisplacementCurrent" "gate eCurrent" "gate hCurrent"
    "gate TotalCurrent" "gate Charge" ]
  functions = [
    Time
    OuterVoltage InnerVoltage QuasiFermiPotential DisplacementCurrent eCurrent
    hCurrent TotalCurrent Charge OuterVoltage InnerVoltage
    QuasiFermiPotential DisplacementCurrent eCurrent hCurrent TotalCurrent
    Charge OuterVoltage InnerVoltage QuasiFermiPotential DisplacementCurrent
    eCurrent hCurrent TotalCurrent Charge OuterVoltage
    InnerVoltage QuasiFermiPotential DisplacementCurrent eCurrent hCurrent
    TotalCurrent Charge ]
}

Data {
      0.00000000000000E+00
      0.00000000000000E+00   0.00000000000000E+00   0.00000000000000E+00   0.00000000000000E+00   1.47455589500042E-18
      4.08750467453285E-29   1.47455589504129E-18  -5.96065704193472E-15   0.00000000000000E+00   0.00000000000000E+00
      0.00000000000000E+00   0.00000000000000E+00  -7.53117954886329E-19  -8.96938722088958E-28  -7.53117955783268E-19
      1.61088121238678E-15   0.00000000000000E+00   0.00000000000000E+00   0.00000000000000E+00   0.00000000000000E+00
     -7.21437940113932E-19   8.55906830996641E-28  -7.21437939258025E-19   1.61088121238678E-15   3.00000000000000E+00
      3.00000000000000E+00   0.00000000000000E+00   0.00000000000000E+00   0.00000000000000E+00   0.00000000000000E+00
      0.00000000000000E+00   2.73889461716114E-15
      1.00000000000000E-02
      0.00000000000000E+00   0.00000000000000E+00   0.00000000000000E+00   0.00000000000000E+00  -1.33900917191353E-17
     -5.12321209930492E-17  -6.46222127121845E-17  -5.98790547834747E-15   0.00000000000000E+00   0.00000000000000E+00
      0.00000000000000E+00   0.00000000000000E+00  -2.70797946220400E-06  -2.56273727279244E-25  -2.70797946220400E-06
      1.61084500608005E-15   3.00000000000000E-02   3.00000000000000E-02   0.00000000000000E+00   0.00000000000000E+00
      2.70797946226859E-06   2.68009671660076E-20   2.70797946226862E-06   1.65282962497352E-15   3.00000000000000E+00
      3.00000000000000E+00   0.00000000000000E+00   0.00000000000000E+00   0.00000000000000E+00   0.00000000000000E+00
      0.00000000000000E+00   2.72423084729389E-15
      2.33333333333333E-02
      0.00000000000000E+00   0.00000000000000E+00   0.00000000000000E+00   0.00000000000000E+00   5.61859416938074E-17
     -9.80356215543350E-17  -4.18496798605276E-17  -6.02502090703815E-15   0.00000000000000E+00   0.00000000000000E+00
      0.00000000000000E+00   0.00000000000000E+00  -5.50898699545930E-06  -5.18667631047657E-25  -5.50898699545930E-06
      1.61080664332337E-15   7.00000000000000E-02   7.00000000000000E-02   0.00000000000000E+00   0.00000000000000E+00
      5.50898699550111E-06   3.52451309483461E-20   5.50898699550114E-06   1.70845637997359E-15   3.00000000000000E+00
      3.00000000000000E+00   0.00000000000000E+00   0.00000000000000E+00   0.00000000000000E+00   0.00000000000000E+00
      0.00000000000000E+00   2.70575788374118E-15
      4.24444444444445E-02
      0.00000000000000E+00   0.00000000000000E+00   0.00000000000000E+00   0.00000000000000E+00  -8.05289971431235E-15
     -1.47377857642540E-16  -8.20027757195489E-15  -6.08045204137088E-15   0.00000000000000E+00   0.00000000000000E+00
      0.00000000000000E+00   0.00000000000000E+00  -8.12368444042315E-06  -7.68365612176032E-25  -8.12368444042315E-06
      1.61076990083645E-15   1.27333333333333E-01   1.27333333333333E-01   0.00000000000000E+00   0.00000000000000E+00
      8.12368444862339E-06   3.62167218293454E-20   8.12368444862342E-06   1.78762199816766E-15   3.00000000000000E+00
      3.00000000000000E+00   0.00000000000000E+00   0.00000000000000E+00   0.00000000000000E+00   0.00000000000000E+00
      0.00000000000000E+00   2.68206014236677E-15
      6.74444444444444E-02
      0.00000000000000E+00   0.00000000000000E+00   0.00000000000000E+00   0.00000000000000E+00  -6.00421516194867E-13
     -2.10596196742661E-16  -6.00632112391610E-13  -6.15814696781786E-15   0.00000000000000E+00   0.00000000000000E+00
      0.00000000000000E+00   0.00000000000000E+00  -9.70028130818154E-06  -9.23862753877618E-25  -9.70028130818154E-06
      1.61074727860379E-15   2.02333333333333E-01   2.02333333333333E-01   0.00000000000000E+00   0.00000000000000E+00
      9.70028190881363E-06   2.38909045087099E-20   9.70028190881366E-06   1.89019442557896E-15   3.00000000000000E+00
      3.00000000000000E+00   0.00000000000000E+00   0.00000000000000E+00   0.00000000000000E+00   0.00000000000000E+00
      0.00000000000000E+00   2.65720526363512E-15
      9.24444444444444E-02
      0.00000000000000E+00   0.00000000000000E+00   0.00000000000000E+00   0.00000000000000E+00   1.10591882515022E-18
     -2.92586697709790E-16  -2.91480778884640E-16  -6.24094827459081E-15   0.00000000000000E+00   0.00000000000000E+00
      0.00000000000000E+00   0.00000000000000E+00  -1.01966851594085E-05  -9.62425420895757E-25  -1.01966851594085E-05
      1.61074007968854E-15   2.77333333333333E-01   2.77333333333333E-01   0.00000000000000E+00   0.00000000000000E+00
      1.01966851596999E-05   3.95679631804575E-20   1.01966851596999E-05   1.99161575699533E-15   3.00000000000000E+00
      3.00000000000000E+00   0.00000000000000E+00   0.00000000000000E+00   0.00000000000000E+00   0.00000000000000E+00
      0.00000000000000E+00   2.63859243790694E-15
      1.17444444444444E-01
      0.00000000000000E+00   0.00000000000000E+00   0.00000000000000E+00   0.00000000000000E+00   1.82774803227502E-18
     -4.04396742217263E-16  -4.02568994184988E-16  -6.32588097332115E-15   0.00000000000000E+00   0.00000000000000E+00
      0.00000000000000E+00   0.00000000000000E+00  -1.03891275032109E-05  -9.81905086269440E-25  -1.03891275032109E-05
      1.61073727878344E-15   3.52333333333333E-01   3.52333333333333E-01   0.00000000000000E+00   0.00000000000000E+00
      1.03891275036133E-05   9.81253689612604E-20   1.03891275036134E-05   2.09181014433763E-15   3.00000000000000E+00
      3.00000000000000E+00   0.00000000000000E+00   0.00000000000000E+00   0.00000000000000E+00   0.00000000000000E+00
      0.00000000000000E+00   2.62333355020009E-15
      1.42444444444444E-01
      0.00000000000000E+00   0.00000000000000E+00   0.00000000000000E+00   0.00000000000000E+00  -4.41647710933987E-17
     -5.55239656236124E-16  -5.99404427329523E-16  -6.41102449292688E-15   0.00000000000000E+00   0.00000000000000E+00
      0.00000000000000E+00   0.00000000000000E+00  -1.05082374307880E-05  -9.93529508027058E-25  -1.05082374307880E-05
      1.61073554236068E-15   4.27333333333333E-01   4.27333333333333E-01   0.00000000000000E+00   0.00000000000000E+00
      1.05082374313873E-05   3.90119859962320E-20   1.05082374313874E-05   2.19063781374513E-15   3.00000000000000E+00
      3.00000000000000E+00   0.00000000000000E+00   0.00000000000000E+00   0.00000000000000E+00   0.00000000000000E+00
      0.00000000000000E+00   2.60965113682107E-15
      1.67444444444444E-01
      0.00000000000000E+00   0.00000000000000E+00   0.00000000000000E+00   0.00000000000000E+00   4.30946616012947E-17
     -7.48819334025226E-16  -7.05724672423932E-16  -6.49559054167327E-15   0.00000000000000E+00   0.00000000000000E+00
      0.00000000000000E+00   0.00000000000000E+00  -1.05969360369796E-05  -1.00070489933400E-24  -1.05969360369796E-05
      1.61073424786983E-15   5.02333333333333E-01   5.02333333333333E-01   0.00000000000000E+00   0.00000000000000E+00
      1.05969360376854E-05  -6.11404538580331E-20   1.05969360376854E-05   2.28789712218897E-15   3.00000000000000E+00
      3.00000000000000E+00   0.00000000000000E+00   0.00000000000000E+00   0.00000000000000E+00   0.00000000000000E+00
      0.00000000000000E+00   2.59695917161448E-15
      1.92444444444444E-01
      0.00000000000000E+00   0.00000000000000E+00   0.00000000000000E+00   0.00000000000000E+00  -1.31971430980411E-18
     -9.77903986200099E-16  -9.79223700509903E-16  -6.57898945937987E-15   0.00000000000000E+00   0.00000000000000E+00
      0.00000000000000E+00   0.00000000000000E+00  -1.06688731520783E-05  -1.00742033676087E-24  -1.06688731520783E-05
      1.61073319711145E-15   5.77333333333333E-01   5.77333333333333E-01   0.00000000000000E+00   0.00000000000000E+00
      1.06688731530575E-05   4.01066451944414E-20   1.06688731530576E-05   2.38326436119817E-15   3.00000000000000E+00
      3.00000000000000E+00   0.00000000000000E+00   0.00000000000000E+00   0.00000000000000E+00   0.00000000000000E+00
      0.00000000000000E+00   2.58499190107026E-15
      2.17444444444444E-01
      0.00000000000000E+00   0.00000000000000E+00   0.00000000000000E+00   0.00000000000000E+00   1.59219297987462E-15
     -1.18547315858999E-15   4.06719821284632E-16  -6.66052958451854E-15   0.00000000000000E+00   0.00000000000000E+00
      0.00000000000000E+00   0.00000000000000E+00  -1.07310425982219E-05  -1.01334084690899E-24  -1.07310425982219E-05
      1.61073228838279E-15   6.52333333333333E-01   6.52333333333333E-01   0.00000000000000E+00   0.00000000000000E+00
      1.07310425978152E-05  -5.69479310750538E-20   1.07310425978151E-05   2.47627647916028E-15   3.00000000000000E+00
      3.00000000000000E+00   0.00000000000000E+00   0.00000000000000E+00   0.00000000000000E+00   0.00000000000000E+00
      0.00000000000000E+00   2.57352081697547E-15
      2.42444444444444E-01
      0.00000000000000E+00   0.00000000000000E+00   0.00000000000000E+00   0.00000000000000E+00  -6.23960696888928E-19
     -1.31339683179172E-15  -1.31402079248861E-15  -6.73962134097663E-15   0.00000000000000E+00   0.00000000000000E+00
      0.00000000000000E+00   0.00000000000000E+00  -1.07868319361342E-05  -1.02104519387624E-24  -1.07868319361342E-05
      1.61073147240353E-15   7.27333333333333E-01   7.27333333333333E-01   0.00000000000000E+00   0.00000000000000E+00
      1.07868319374482E-05   3.96661639197112E-20   1.07868319374482E-05   2.56646640539440E-15   3.00000000000000E+00
      3.00000000000000E+00   0.00000000000000E+00   0.00000000000000E+00   0.00000000000000E+00   0.00000000000000E+00
      0.00000000000000E+00   2.56242346317871E-15
      2.67444444444444E-01
      0.00000000000000E+00   0.00000000000000E+00   0.00000000000000E+00   0.00000000000000E+00   1.32965235172356E-13
     -1.38133125554284E-15   1.31583903916813E-13  -6.81605338201864E-15   0.00000000000000E+00   0.00000000000000E+00
      0.00000000000000E+00   0.00000000000000E+00  -1.08377264547748E-05  -1.02326728195937E-24  -1.08377264547748E-05
      1.61073072759599E-15   8.02333333333333E-01   8.02333333333333E-01   0.00000000000000E+00   0.00000000000000E+00
      1.08377263231910E-05  -1.00534024022320E-19   1.08377263231909E-05   2.65365274114391E-15   3.00000000000000E+00
      3.00000000000000E+00   0.00000000000000E+00   0.00000000000000E+00   0.00000000000000E+00   0.00000000000000E+00
      0.00000000000000E+00   2.55166991327873E-15
      2.92444444444444E-01
      0.00000000000000E+00   0.00000000000000E+00   0.00000000000000E+00   0.00000000000000E+00  -7.66274593791333E-19
     -1.42237492158773E-15  -1.42314119618152E-15  -6.89022947033032E-15   0.00000000000000E+00   0.00000000000000E+00
      0.00000000000000E+00   0.00000000000000E+00  -1.08842962609861E-05  -1.02734325683504E-24  -1.08842962609861E-05
      1.61073004572600E-15   8.77333333333333E-01   8.77333333333333E-01   0.00000000000000E+00   0.00000000000000E+00
      1.08842962624092E-05   3.91864069505475E-20   1.08842962624092E-05   2.73820726834333E-15   3.00000000000000E+00
      3.00000000000000E+00   0.00000000000000E+00   0.00000000000000E+00   0.00000000000000E+00   0.00000000000000E+00
      0.00000000000000E+00   2.54129215626097E-15
      3.17444444444444E-01
      0.00000000000000E+00   0.00000000000000E+00   0.00000000000000E+00   0.00000000000000E+00   8.04203363910351E-19
     -1.44747365605648E-15  -1.44666945269257E-15  -6.96305277990691E-15   0.00000000000000E+00   0.00000000000000E+00
      0.00000000000000E+00   0.00000000000000E+00  -1.09267138542841E-05  -1.03237826788007E-24  -1.09267138542841E-05
      1.61072942435918E-15   9.52333333333333E-01   9.52333333333333E-01   0.00000000000000E+00   0.00000000000000E+00
      1.09267138557307E-05   3.96775595551054E-20   1.09267138557308E-05   2.82096433896294E-15   3.00000000000000E+00
      3.00000000000000E+00   0.00000000000000E+00   0.00000000000000E+00   0.00000000000000E+00   0.00000000000000E+00
      0.00000000000000E+00   2.53135901658479E-15
      3.42444444444444E-01
      0.00000000000000E+00   0.00000000000000E+00   0.00000000000000E+00   0.00000000000000E+00  -9.05850850826425E-19
     -1.46451286110143E-15  -1.46541871195226E-15  -7.03548642669430E-15   0.00000000000000E+00   0.00000000000000E+00
      0.00000000000000E+00   0.00000000000000E+00  -1.09651335697383E-05  -1.03437160974707E-24  -1.09651335697383E-05
      1.61072886131505E-15   1.02733333333333E+00   1.02733333333333E+00   0.00000000000000E+00   0.00000000000000E+00
      1.09651335712036E-05   8.56367656494237E-20   1.09651335712037E-05   2.90281953456892E-15   3.00000000000000E+00
      3.00000000000000E+00   0.00000000000000E+00   0.00000000000000E+00   0.00000000000000E+00   0.00000000000000E+00
      0.00000000000000E+00   2.52193803081033E-15
      3.67444444444445E-01
      0.00000000000000E+00   0.00000000000000E+00   0.00000000000000E+00   0.00000000000000E+00  -2.39049050916775E-19
     -1.47809978436452E-15  -1.47833883341543E-15  -7.10823152207473E-15   0.00000000000000E+00   0.00000000000000E+00
      0.00000000000000E+00   0.00000000000000E+00  -1.09999205968311E-05  -1.03805778278604E-24  -1.09999205968311E-05
      1.61072835131006E-15   1.10233333333333E+00   1.10233333333333E+00   0.00000000000000E+00   0.00000000000000E+00
      1.09999205983094E-05   4.41842539548716E-20   1.09999205983095E-05   2.98444855526055E-15   3.00000000000000E+00
      3.00000000000000E+00   0.00000000000000E+00   0.00000000000000E+00   0.00000000000000E+00   0.00000000000000E+00
      0.00000000000000E+00   2.51305461550412E-15
      3.92444444444445E-01
      0.00000000000000E+00   0.00000000000000E+00   0.00000000000000E+00   0.00000000000000E+00   4.28903755560845E-19
     -1.49002683937274E-15  -1.48959793561718E-15  -7.18165059198879E-15   0.00000000000000E+00   0.00000000000000E+00
      0.00000000000000E+00   0.00000000000000E+00  -1.10316456127275E-05  -1.04071327240665E-24  -1.10316456127275E-05
      1.61072788603214E-15   1.17733333333333E+00   1.17733333333333E+00   0.00000000000000E+00   0.00000000000000E+00
      1.10316456142170E-05   3.92276701090749E-20   1.10316456142171E-05   3.06624709601401E-15   3.00000000000000E+00
      3.00000000000000E+00   0.00000000000000E+00   0.00000000000000E+00   0.00000000000000E+00   0.00000000000000E+00
      0.00000000000000E+00   2.50467560994265E-15
      4.17444444444445E-01
      0.00000000000000E+00   0.00000000000000E+00   0.00000000000000E+00   0.00000000000000E+00   1.47091312208234E-15
     -1.50149514471008E-15  -3.05820226277455E-17  -7.25575772781172E-15   0.00000000000000E+00   0.00000000000000E+00
      0.00000000000000E+00   0.00000000000000E+00  -1.10609998909833E-05  -1.04332815385211E-24  -1.10609998909833E-05
      1.61072745538354E-15   1.25233333333333E+00   1.25233333333333E+00   0.00000000000000E+00   0.00000000000000E+00
      1.10609998910138E-05   5.73510181099483E-20   1.10609998910139E-05   3.14831822031459E-15   3.00000000000000E+00
      3.00000000000000E+00   0.00000000000000E+00   0.00000000000000E+00   0.00000000000000E+00   0.00000000000000E+00
      0.00000000000000E+00   2.49671205211359E-15
      4.42444444444445E-01
      0.00000000000000E+00   0.00000000000000E+00   0.00000000000000E+00   0.00000000000000E+00   1.25394320641439E-10
     -1.51469550669498E-15   1.25392805945933E-10  -7.33023644688343E-15   0.00000000000000E+00   0.00000000000000E+00
      0.00000000000000E+00   0.00000000000000E+00  -1.10887225134091E-05  -1.04550230084245E-24  -1.10887225134091E-05
      1.61072704854889E-15   1.32733333333333E+00   1.32733333333333E+00   0.00000000000000E+00   0.00000000000000E+00
      1.10885971206032E-05  -6.16617351983905E-20   1.10885971206032E-05   3.23047943263806E-15   3.00000000000000E+00
      3.00000000000000E+00   0.00000000000000E+00   0.00000000000000E+00   0.00000000000000E+00   0.00000000000000E+00
      0.00000000000000E+00   2.48902996569648E-15
      4.67444444444445E-01
      0.00000000000000E+00   0.00000000000000E+00   0.00000000000000E+00   0.00000000000000E+00   3.40815463065421E-19
     -1.53223717981175E-15  -1.53189636434869E-15  -7.40467433748781E-15   0.00000000000000E+00   0.00000000000000E+00
      0.00000000000000E+00   0.00000000000000E+00  -1.11154220977512E-05  -1.05011044796629E-24  -1.11154220977512E-05
      1.61072665661418E-15   1.40233333333333E+00   1.40233333333333E+00   0.00000000000000E+00   0.00000000000000E+00
      1.11154220992831E-05   6.63362946981286E-20   1.11154220992831E-05   3.31244438808022E-15   3.00000000000000E+00
      3.00000000000000E+00   0.00000000000000E+00   0.00000000000000E+00   0.00000000000000E+00   0.00000000000000E+00
      0.00000000000000E+00   2.48150329279341E-15
      4.92444444444445E-01
      0.00000000000000E+00   0.00000000000000E+00   0.00000000000000E+00   0.00000000000000E+00  -6.86560972636864E-19
     -1.55426155290751E-15  -1.55494811388015E-15  -7.47882435147625E-15   0.00000000000000E+00   0.00000000000000E+00
      0.00000000000000E+00   0.00000000000000E+00  -1.11413823538867E-05  -1.05177791398241E-24  -1.11413823538867E-05
      1.61072627542539E-15   1.47733333333333E+00   1.47733333333333E+00   0.00000000000000E+00   0.00000000000000E+00
      1.11413823554416E-05   6.04330623637123E-20   1.11413823554416E-05   3.39402355772878E-15   3.00000000000000E+00
      3.00000000000000E+00   0.00000000000000E+00   0.00000000000000E+00   0.00000000000000E+00   0.00000000000000E+00
      0.00000000000000E+00   2.47407451832206E-15
      5.17444444444445E-01
      0.00000000000000E+00   0.00000000000000E+00   0.00000000000000E+00   0.00000000000000E+00   1.90679792755584E-14
     -1.57873521956749E-15   1.74892440559909E-14  -7.55258443556078E-15   0.00000000000000E+00   0.00000000000000E+00
      0.00000000000000E+00   0.00000000000000E+00  -1.11666701676516E-05  -1.05433695634013E-24  -1.11666701676516E-05
      1.61072590400902E-15   1.55233333333333E+00   1.55233333333333E+00   0.00000000000000E+00   0.00000000000000E+00
      1.11666701501623E-05   6.93999792862973E-20   1.11666701501624E-05   3.47512136874117E-15   3.00000000000000E+00
      3.00000000000000E+00   0.00000000000000E+00   0.00000000000000E+00   0.00000000000000E+00   0.00000000000000E+00
      0.00000000000000E+00   2.46673716281059E-15
      5.42444444444445E-01
      0.00000000000000E+00   0.00000000000000E+00   0.00000000000000E+00   0.00000000000000E+00   1.41814703316878E-18
     -1.60527203489748E-15  -1.60385388786431E-15  -7.62591689900529E-15   0.00000000000000E+00   0.00000000000000E+00
      0.00000000000000E+00   0.00000000000000E+00  -1.11912710638236E-05  -1.05792148743860E-24  -1.11912710638236E-05
      1.61072554258567E-15   1.62733333333333E+00   1.62733333333333E+00   0.00000000000000E+00   0.00000000000000E+00
      1.11912710654274E-05   3.97508470488075E-20   1.11912710654275E-05   3.55568652913163E-15   3.00000000000000E+00
      3.00000000000000E+00   0.00000000000000E+00   0.00000000000000E+00   0.00000000000000E+00   0.00000000000000E+00
      0.00000000000000E+00   2.45950482728799E-15
      5.67444444444445E-01
      0.00000000000000E+00   0.00000000000000E+00   0.00000000000000E+00   0.00000000000000E+00  -3.05354400161263E-12
     -1.63983186498210E-15  -3.05518383347761E-12  -7.69881203670150E-15   0.00000000000000E+00   0.00000000000000E+00
      0.00000000000000E+00   0.00000000000000E+00  -1.12151628734623E-05  -1.05783447815502E-24  -1.12151628734623E-05
      1.61072519148902E-15   1.70233333333333E+00   1.70233333333333E+00   0.00000000000000E+00   0.00000000000000E+00
      1.12151659286467E-05  -5.80963840330713E-19   1.12151659286461E-05   3.63569431954411E-15   3.00000000000000E+00
      3.00000000000000E+00   0.00000000000000E+00   0.00000000000000E+00   0.00000000000000E+00   0.00000000000000E+00
      0.00000000000000E+00   2.45239252566838E-15
      5.92444444444445E-01
      0.00000000000000E+00   0.00000000000000E+00   0.00000000000000E+00   0.00000000000000E+00  -2.44290740447257E-12
     -1.69527575615614E-15  -2.44460268022873E-12  -7.77127307459982E-15   0.00000000000000E+00   0.00000000000000E+00
      0.00000000000000E+00   0.00000000000000E+00  -1.12383696189614E-05  -1.06042039538965E-24  -1.12383696189614E-05
      1.61072485037384E-15   1.77733333333333E+00   1.77733333333333E+00   0.00000000000000E+00   0.00000000000000E+00
      1.12383720635642E-05  -1.32849114089082E-19   1.12383720635641E-05   3.71514695125083E-15   3.00000000000000E+00
      3.00000000000000E+00   0.00000000000000E+00   0.00000000000000E+00   0.00000000000000E+00   0.00000000000000E+00
      0.00000000000000E+00   2.44540127297514E-15
      6.17444444444445E-01
      0.00000000000000E+00   0.00000000000000E+00   0.00000000000000E+00   0.00000000000000E+00   2.94872594788759E-18
     -1.78193639081849E-15  -1.77898766487060E-15  -7.84330542597138E-15   0.00000000000000E+00   0.00000000000000E+00
      0.00000000000000E+00   0.00000000000000E+00  -1.12609868791771E-05  -1.06421111415657E-24  -1.12609868791771E-05
      1.61072451784210E-15   1.85233333333333E+00   1.85233333333333E+00   0.00000000000000E+00   0.00000000000000E+00
      1.12609868809561E-05   3.38965784157782E-20   1.12609868809561E-05   3.79407121830181E-15   3.00000000000000E+00
      3.00000000000000E+00   0.00000000000000E+00   0.00000000000000E+00   0.00000000000000E+00   0.00000000000000E+00
      0.00000000000000E+00   2.43850968982748E-15
      6.42444444444445E-01
      0.00000000000000E+00   0.00000000000000E+00   0.00000000000000E+00   0.00000000000000E+00   6.54350335540874E-20
     -1.89634326705998E-15  -1.89627783202642E-15  -7.91490688613256E-15   0.00000000000000E+00   0.00000000000000E+00
      0.00000000000000E+00   0.00000000000000E+00  -1.12831497412156E-05  -1.06557500464692E-24  -1.12831497412156E-05
      1.61072419191321E-15   1.92733333333333E+00   1.92733333333333E+00   0.00000000000000E+00   0.00000000000000E+00
      1.12831497431118E-05   9.05392481678993E-20   1.12831497431119E-05   3.87250032018319E-15   3.00000000000000E+00
      3.00000000000000E+00   0.00000000000000E+00   0.00000000000000E+00   0.00000000000000E+00   0.00000000000000E+00
      0.00000000000000E+00   2.43168237403616E-15
      6.67444444444445E-01
      0.00000000000000E+00   0.00000000000000E+00   0.00000000000000E+00   0.00000000000000E+00  -6.19429938425186E-19
     -2.00691899285730E-15  -2.00753842279572E-15  -7.98605617348772E-15   0.00000000000000E+00   0.00000000000000E+00
      0.00000000000000E+00   0.00000000000000E+00  -1.13049742409253E-05  -1.06591836288959E-24  -1.13049742409253E-05
      1.61072387088484E-15   2.00233333333333E+00   2.00233333333333E+00   0.00000000000000E+00   0.00000000000000E+00
      1.13049742429328E-05   7.23737763174028E-20   1.13049742429328E-05   3.95044495540490E-15   3.00000000000000E+00
      3.00000000000000E+00   0.00000000000000E+00   0.00000000000000E+00   0.00000000000000E+00   0.00000000000000E+00
      0.00000000000000E+00   2.42488734719798E-15
      6.92444444444445E-01
      0.00000000000000E+00   0.00000000000000E+00   0.00000000000000E+00   0.00000000000000E+00   2.23647382877705E-15
     -2.08456424065436E-15   1.51909588122690E-16  -8.05670054707680E-15   0.00000000000000E+00   0.00000000000000E+00
      0.00000000000000E+00   0.00000000000000E+00  -1.13265322867060E-05  -1.07063199245257E-24  -1.13265322867060E-05
      1.61072355370233E-15   2.07733333333333E+00   2.07733333333333E+00   0.00000000000000E+00   0.00000000000000E+00
      1.13265322865540E-05   7.07866629722643E-20   1.13265322865541E-05   4.02787241096179E-15   3.00000000000000E+00
      3.00000000000000E+00   0.00000000000000E+00   0.00000000000000E+00   0.00000000000000E+00   0.00000000000000E+00
      0.00000000000000E+00   2.41810458241269E-15
      7.17444444444445E-01
      0.00000000000000E+00   0.00000000000000E+00   0.00000000000000E+00   0.00000000000000E+00   1.04533316012551E-16
     -2.12956224953511E-15  -2.02502893352256E-15  -8.12674846843039E-15   0.00000000000000E+00   0.00000000000000E+00
      0.00000000000000E+00   0.00000000000000E+00  -1.13478604114220E-05  -1.07250964680727E-24  -1.13478604114220E-05
      1.61072323983065E-15   2.15233333333333E+00   2.15233333333333E+00   0.00000000000000E+00   0.00000000000000E+00
      1.13478604134470E-05   5.00983849622914E-20   1.13478604134470E-05   4.10470097348518E-15   3.00000000000000E+00
      3.00000000000000E+00   0.00000000000000E+00   0.00000000000000E+00   0.00000000000000E+00   0.00000000000000E+00
      0.00000000000000E+00   2.41132425511456E-15
      7.42444444444445E-01
      0.00000000000000E+00   0.00000000000000E+00   0.00000000000000E+00   0.00000000000000E+00   3.27489815341697E-18
     -2.15584469951519E-15  -2.15256980136177E-15  -8.19606680613757E-15   0.00000000000000E+00   0.00000000000000E+00
      0.00000000000000E+00   0.00000000000000E+00  -1.13689765380301E-05  -1.07249787433189E-24  -1.13689765380301E-05
      1.61072292900821E-15   2.22733333333333E+00   2.22733333333333E+00   0.00000000000000E+00   0.00000000000000E+00
      1.13689765401826E-05   7.12593691772945E-20   1.13689765401827E-05   4.18080183009299E-15   3.00000000000000E+00
      3.00000000000000E+00   0.00000000000000E+00   0.00000000000000E+00   0.00000000000000E+00   0.00000000000000E+00
      0.00000000000000E+00   2.40454204703638E-15
      7.67444444444445E-01
      0.00000000000000E+00   0.00000000000000E+00   0.00000000000000E+00   0.00000000000000E+00  -1.05807869321106E-18
     -2.17340722460114E-15  -2.17446530329435E-15  -8.26447910861949E-15   0.00000000000000E+00   0.00000000000000E+00
      0.00000000000000E+00   0.00000000000000E+00  -1.13898902903553E-05  -1.07590608163441E-24  -1.13898902903553E-05
      1.61072262109537E-15   2.30233333333333E+00   2.30233333333333E+00   0.00000000000000E+00   0.00000000000000E+00
      1.13898902925298E-05   4.67063993078029E-20   1.13898902925298E-05   4.25600031406575E-15   3.00000000000000E+00
      3.00000000000000E+00   0.00000000000000E+00   0.00000000000000E+00   0.00000000000000E+00   0.00000000000000E+00
      0.00000000000000E+00   2.39775617345838E-15
      7.92444444444445E-01
      0.00000000000000E+00   0.00000000000000E+00   0.00000000000000E+00   0.00000000000000E+00   3.10356698443033E-20
     -2.18597098009937E-15  -2.18593994442953E-15  -8.33177143761114E-15   0.00000000000000E+00   0.00000000000000E+00
      0.00000000000000E+00   0.00000000000000E+00  -1.14106079929398E-05  -1.07657377090953E-24  -1.14106079929398E-05
      1.61072231600095E-15   2.37733333333333E+00   2.37733333333333E+00   0.00000000000000E+00   0.00000000000000E+00
      1.14106079951257E-05   3.98022667299197E-20   1.14106079951257E-05   4.33008318643349E-15   3.00000000000000E+00
      3.00000000000000E+00   0.00000000000000E+00   0.00000000000000E+00   0.00000000000000E+00   0.00000000000000E+00
      0.00000000000000E+00   2.39096593517671E-15
      8.17444444444445E-01
      0.00000000000000E+00   0.00000000000000E+00   0.00000000000000E+00   0.00000000000000E+00  -5.80272791783233E-19
     -2.19450690683234E-15  -2.19508717962412E-15  -8.39772178984104E-15   0.00000000000000E+00   0.00000000000000E+00
      0.00000000000000E+00   0.00000000000000E+00  -1.14311348674796E-05  -1.08077725521460E-24  -1.14311348674796E-05
      1.61072201364989E-15   2.45233333333333E+00   2.45233333333333E+00   0.00000000000000E+00   0.00000000000000E+00
      1.14311348696746E-05   3.10618206762038E-20   1.14311348696747E-05   4.40282868905011E-15   3.00000000000000E+00
      3.00000000000000E+00   0.00000000000000E+00   0.00000000000000E+00   0.00000000000000E+00   0.00000000000000E+00
      0.00000000000000E+00   2.38417108714105E-15
      8.42444444444445E-01
      0.00000000000000E+00   0.00000000000000E+00   0.00000000000000E+00   0.00000000000000E+00  -1.09669536861829E-18
     -2.20024013726772E-15  -2.20133683263634E-15  -8.46216979671599E-15   0.00000000000000E+00   0.00000000000000E+00
      0.00000000000000E+00   0.00000000000000E+00  -1.14514759890208E-05  -1.07886253931225E-24  -1.14514759890208E-05
      1.61072171396922E-15   2.52733333333333E+00   2.52733333333333E+00   0.00000000000000E+00   0.00000000000000E+00
      1.14514759912220E-05   7.89926861360638E-20   1.14514759912221E-05   4.47407652115949E-15   3.00000000000000E+00
      3.00000000000000E+00   0.00000000000000E+00   0.00000000000000E+00   0.00000000000000E+00   0.00000000000000E+00
      0.00000000000000E+00   2.37737156158727E-15
      8.67444444444445E-01
      0.00000000000000E+00   0.00000000000000E+00   0.00000000000000E+00   0.00000000000000E+00   2.99112399669718E-19