DF-ISE text

Info {
  version   = 1.0
  type      = xyplot
  datasets  = [
    "time"
    "substrate OuterVoltage" "substrate InnerVoltage" "substrate QuasiFermiPotential" "substrate DisplacementCurrent" "substrate eCurrent"
    "substrate hCurrent" "substrate TotalCurrent" "substrate Charge" "source OuterVoltage" "source InnerVoltage"
    "source QuasiFermiPotential" "source DisplacementCurrent" "source eCurrent" "source hCurrent" "source TotalCurrent"
    "source Charge" "drain OuterVoltage" "drain InnerVoltage" "drain QuasiFermiPotential" "drain DisplacementCurrent"
    "drain eCurrent" "drain hCurrent" "drain TotalCurrent" "drain Charge" "gate OuterVoltage"
    "gate InnerVoltage" "gate QuasiFermiPotential" "gate DisplacementCurrent" "gate eCurrent" "gate hCurrent"
    "gate TotalCurrent" "gate Charge" ]
  functions = [
    Time
    OuterVoltage InnerVoltage QuasiFermiPotential DisplacementCurrent eCurrent
    hCurrent TotalCurrent Charge OuterVoltage InnerVoltage
    QuasiFermiPotential DisplacementCurrent eCurrent hCurrent TotalCurrent
    Charge OuterVoltage InnerVoltage QuasiFermiPotential DisplacementCurrent
    eCurrent hCurrent TotalCurrent Charge OuterVoltage
    InnerVoltage QuasiFermiPotential DisplacementCurrent eCurrent hCurrent
    TotalCurrent Charge ]
}

Data {
      0.00000000000000E+00
      0.00000000000000E+00   0.00000000000000E+00   0.00000000000000E+00   0.00000000000000E+00   2.26347932505322E-20
     -1.56381615734222E-23   2.26191550889587E-20  -5.07038061790357E-15   0.00000000000000E+00   0.00000000000000E+00
      0.00000000000000E+00   0.00000000000000E+00  -1.12039710951949E-20   1.42516360780723E-24  -1.12025459315871E-20
      2.34253622672542E-15   0.00000000000000E+00   0.00000000000000E+00   0.00000000000000E+00   0.00000000000000E+00
     -1.14308221558021E-20   1.42129984304439E-23  -1.14166091573716E-20   2.34253622672542E-15   0.00000000000000E+00
      0.00000000000000E+00   0.00000000000000E+00   0.00000000000000E+00   0.00000000000000E+00   0.00000000000000E+00
      0.00000000000000E+00   3.85308164452739E-16
      1.00000000000000E-02
      0.00000000000000E+00   0.00000000000000E+00   0.00000000000000E+00   0.00000000000000E+00   1.79551681678207E-17
     -4.34020201516465E-17  -2.54468519838259E-17  -5.12304651153200E-15   0.00000000000000E+00   0.00000000000000E+00
      0.00000000000000E+00   0.00000000000000E+00  -1.82505348078980E-19  -1.57012722852380E-23  -1.82521049351265E-19
      2.34253622672540E-15   3.00000000000000E-02   3.00000000000000E-02   0.00000000000000E+00   0.00000000000000E+00
      2.56124109262444E-17   1.69621069328241E-20   2.56293730331772E-17   2.39721885651612E-15   0.00000000000000E+00
      0.00000000000000E+00   0.00000000000000E+00   0.00000000000000E+00   0.00000000000000E+00   0.00000000000000E+00
      0.00000000000000E+00   3.83291428290485E-16
      2.33333333333333E-02
      0.00000000000000E+00   0.00000000000000E+00   0.00000000000000E+00   0.00000000000000E+00   4.58067173602163E-14
     -8.80822540776910E-17   4.57186351061386E-14  -5.19275457242576E-15   0.00000000000000E+00   0.00000000000000E+00
      0.00000000000000E+00   0.00000000000000E+00  -1.31507693182246E-19   5.84451779825490E-24  -1.31501848664448E-19
      2.34253622672536E-15   7.00000000000000E-02   7.00000000000000E-02   0.00000000000000E+00   0.00000000000000E+00
     -4.57167483254359E-14  -1.75527885402406E-18  -4.57185036042900E-14   2.46959495001651E-15   0.00000000000000E+00
      0.00000000000000E+00   0.00000000000000E+00   0.00000000000000E+00   0.00000000000000E+00   0.00000000000000E+00
      0.00000000000000E+00   3.80623395683885E-16
      4.28888888888889E-02
      0.00000000000000E+00   0.00000000000000E+00   0.00000000000000E+00   0.00000000000000E+00  -1.06938221779936E-19
     -1.61174108952773E-16  -1.61281047174553E-16  -5.29405116835855E-15   0.00000000000000E+00   0.00000000000000E+00
      0.00000000000000E+00   0.00000000000000E+00  -8.40339709810053E-20  -1.57574671280153E-24  -8.40355467277180E-20
      2.34253622672534E-15   1.28666666666667E-01   1.28666666666667E-01   0.00000000000000E+00   0.00000000000000E+00
      1.61301634882936E-16   6.34478383450514E-20   1.61365082721281E-16   2.57475460439701E-15   0.00000000000000E+00
      0.00000000000000E+00   0.00000000000000E+00   0.00000000000000E+00   0.00000000000000E+00   0.00000000000000E+00
      0.00000000000000E+00   3.76760337236194E-16
      6.78888888888889E-02
      0.00000000000000E+00   0.00000000000000E+00   0.00000000000000E+00   0.00000000000000E+00  -1.32762544366582E-19
     -2.74099431546606E-16  -2.74232194090972E-16  -5.42206407612051E-15   0.00000000000000E+00   0.00000000000000E+00
      0.00000000000000E+00   0.00000000000000E+00  -1.40553072304736E-19   3.02592151716501E-24  -1.40550046383218E-19
      2.34253622672529E-15   2.03666666666667E-01   2.03666666666667E-01   0.00000000000000E+00   0.00000000000000E+00
      2.74321136112978E-16   5.16080243768599E-20   2.74372744137355E-16   2.70760628849947E-15   0.00000000000000E+00
      0.00000000000000E+00   0.00000000000000E+00   0.00000000000000E+00   0.00000000000000E+00   0.00000000000000E+00
      0.00000000000000E+00   3.71921560895741E-16
      9.28888888888889E-02
      0.00000000000000E+00   0.00000000000000E+00   0.00000000000000E+00   0.00000000000000E+00  -1.26028217052610E-19
     -4.11944676628575E-16  -4.12070704845628E-16  -5.54847169639966E-15   0.00000000000000E+00   0.00000000000000E+00
      0.00000000000000E+00   0.00000000000000E+00  -1.26428594145879E-19   1.63711318980496E-23  -1.26412223013981E-19
      2.34253622672524E-15   2.78666666666667E-01   2.78666666666667E-01   0.00000000000000E+00   0.00000000000000E+00
      4.12135584169756E-16   6.15328988858859E-20   4.12197117068642E-16   2.83873912933880E-15   0.00000000000000E+00
      0.00000000000000E+00   0.00000000000000E+00   0.00000000000000E+00   0.00000000000000E+00   0.00000000000000E+00
      0.00000000000000E+00   3.67196340335631E-16
      1.17888888888889E-01
      0.00000000000000E+00   0.00000000000000E+00   0.00000000000000E+00   0.00000000000000E+00  -7.17592421086947E-20
     -5.67572180698272E-16  -5.67643939940380E-16  -5.67323663891185E-15   0.00000000000000E+00   0.00000000000000E+00
      0.00000000000000E+00   0.00000000000000E+00  -1.37445321592884E-19   5.53886852008186E-24  -1.37439782724364E-19
      2.34253622672517E-15   3.53666666666667E-01   3.53666666666667E-01   0.00000000000000E+00   0.00000000000000E+00
      5.67726688854069E-16   5.46908690363416E-20   5.67781379723105E-16   2.96814310656646E-15   0.00000000000000E+00
      0.00000000000000E+00   0.00000000000000E+00   0.00000000000000E+00   0.00000000000000E+00   0.00000000000000E+00
      0.00000000000000E+00   3.62557305620213E-16
      1.42888888888889E-01
      0.00000000000000E+00   0.00000000000000E+00   0.00000000000000E+00   0.00000000000000E+00  -9.39552717016900E-20
     -7.33869384699969E-16  -7.33963339971671E-16  -5.79620269972640E-15   0.00000000000000E+00   0.00000000000000E+00
      0.00000000000000E+00   0.00000000000000E+00  -1.12360595099125E-19   8.99151772915328E-25  -1.12359695947352E-19
      2.34253622672510E-15   4.28666666666667E-01   4.28666666666667E-01   0.00000000000000E+00   0.00000000000000E+00
      7.34024653613740E-16   5.10460538784820E-20   7.34075699667619E-16   3.09570452684118E-15   0.00000000000000E+00
      0.00000000000000E+00   0.00000000000000E+00   0.00000000000000E+00   0.00000000000000E+00   0.00000000000000E+00
      0.00000000000000E+00   3.57961946160127E-16
      1.67888888888889E-01
      0.00000000000000E+00   0.00000000000000E+00   0.00000000000000E+00   0.00000000000000E+00  -1.50408673239017E-19
     -9.25411063970151E-16  -9.25561472643390E-16  -5.91704911236204E-15   0.00000000000000E+00   0.00000000000000E+00
      0.00000000000000E+00   0.00000000000000E+00  -5.84404014089468E-20   4.44545488874181E-25  -5.84399568634579E-20
      2.34253622672502E-15   5.03666666666667E-01   5.03666666666667E-01   0.00000000000000E+00   0.00000000000000E+00
      9.25588527052628E-16   3.13855476251147E-20   9.25619912600253E-16   3.22113540960985E-15   0.00000000000000E+00
      0.00000000000000E+00   0.00000000000000E+00   0.00000000000000E+00   0.00000000000000E+00   0.00000000000000E+00
      0.00000000000000E+00   3.53377476027174E-16
      1.92888888888889E-01
      0.00000000000000E+00   0.00000000000000E+00   0.00000000000000E+00   0.00000000000000E+00  -8.10354313190360E-20
     -1.15836199587720E-15  -1.15844303130852E-15  -6.03527436883938E-15   0.00000000000000E+00   0.00000000000000E+00
      0.00000000000000E+00   0.00000000000000E+00  -1.26534780367284E-19  -4.82543135892003E-24  -1.26539605798643E-19
      2.34253622672492E-15   5.78666666666667E-01   5.78666666666667E-01   0.00000000000000E+00   0.00000000000000E+00
      1.15843204661710E-15   1.37524297217483E-19   1.15856957091432E-15   3.34395134566299E-15   0.00000000000000E+00
      0.00000000000000E+00   0.00000000000000E+00   0.00000000000000E+00   0.00000000000000E+00   0.00000000000000E+00
      0.00000000000000E+00   3.48786796451471E-16
      2.17888888888889E-01
      0.00000000000000E+00   0.00000000000000E+00   0.00000000000000E+00   0.00000000000000E+00  -7.12493822292489E-20
     -1.40535870969027E-15  -1.40542995907250E-15  -6.15023580199427E-15   0.00000000000000E+00   0.00000000000000E+00
      0.00000000000000E+00   0.00000000000000E+00  -1.36899594020940E-19   3.38354168912696E-24  -1.36896210479251E-19
      2.34253622672482E-15   6.53666666666667E-01   6.53666666666667E-01   0.00000000000000E+00   0.00000000000000E+00
      1.40548690307559E-15   7.99522073863709E-20   1.40556685528298E-15   3.46351672250239E-15   0.00000000000000E+00
      0.00000000000000E+00   0.00000000000000E+00   0.00000000000000E+00   0.00000000000000E+00   0.00000000000000E+00
      0.00000000000000E+00   3.44182852767058E-16
      2.42888888888889E-01
      0.00000000000000E+00   0.00000000000000E+00   0.00000000000000E+00   0.00000000000000E+00  -9.80661612900263E-20
     -1.59370210600694E-15  -1.59380017216823E-15  -6.26130228676625E-15   0.00000000000000E+00   0.00000000000000E+00
      0.00000000000000E+00   0.00000000000000E+00  -1.11274045274745E-19   4.42662804932227E-24  -1.11269618646695E-19
      2.34253622672475E-15   7.28666666666667E-01   7.28666666666667E-01   0.00000000000000E+00   0.00000000000000E+00
      1.59386037355876E-15   5.10682281151027E-20   1.59391144178688E-15   3.57920273592401E-15   0.00000000000000E+00
      0.00000000000000E+00   0.00000000000000E+00   0.00000000000000E+00   0.00000000000000E+00   0.00000000000000E+00
      0.00000000000000E+00   3.39563324117480E-16
      2.67888888888889E-01
      0.00000000000000E+00   0.00000000000000E+00   0.00000000000000E+00   0.00000000000000E+00  -5.34785614456733E-20
     -1.70605098501280E-15  -1.70610446357425E-15  -6.36816432443895E-15   0.00000000000000E+00   0.00000000000000E+00
      0.00000000000000E+00   0.00000000000000E+00  -1.53360945274536E-19   3.14397474934250E-24  -1.53357801299787E-19
      2.34253622672470E-15   8.03666666666667E-01   8.03666666666667E-01   0.00000000000000E+00   0.00000000000000E+00
      1.70619570786758E-15   6.21135079694850E-20   1.70625782137555E-15   3.69070022814296E-15   0.00000000000000E+00
      0.00000000000000E+00   0.00000000000000E+00   0.00000000000000E+00   0.00000000000000E+00   0.00000000000000E+00
      0.00000000000000E+00   3.34927869571290E-16
      2.92888888888889E-01
      0.00000000000000E+00   0.00000000000000E+00   0.00000000000000E+00   0.00000000000000E+00  -1.38428386766713E-19
     -1.77747373553330E-15  -1.77761216392007E-15  -6.47114501921751E-15   0.00000000000000E+00   0.00000000000000E+00
      0.00000000000000E+00   0.00000000000000E+00  -7.13468300645812E-20   8.10674367978121E-26  -7.13467489971444E-20
      2.34253622672467E-15   8.78666666666667E-01   8.78666666666667E-01   0.00000000000000E+00   0.00000000000000E+00
      1.77762832960369E-15   5.51810653750964E-20   1.77768351066907E-15   3.79833186977455E-15   0.00000000000000E+00
      0.00000000000000E+00   0.00000000000000E+00   0.00000000000000E+00   0.00000000000000E+00   0.00000000000000E+00
      0.00000000000000E+00   3.30276922718316E-16
      3.17888888888889E-01
      0.00000000000000E+00   0.00000000000000E+00   0.00000000000000E+00   0.00000000000000E+00  -1.77303193907395E-19
     -1.82376187185610E-15  -1.82393917505001E-15  -6.57115942911397E-15   0.00000000000000E+00   0.00000000000000E+00
      0.00000000000000E+00   0.00000000000000E+00  -3.27742200218623E-20  -8.65129133956569E-24  -3.27828713132019E-20
      2.34253622672464E-15   9.53666666666667E-01   9.53666666666667E-01   0.00000000000000E+00   0.00000000000000E+00
      1.82392086290715E-15   5.10950141624324E-20   1.82397195792132E-15   3.90301203378067E-15   0.00000000000000E+00
      0.00000000000000E+00   0.00000000000000E+00   0.00000000000000E+00   0.00000000000000E+00   0.00000000000000E+00
      0.00000000000000E+00   3.25611168608667E-16
      3.42888888888889E-01
      0.00000000000000E+00   0.00000000000000E+00   0.00000000000000E+00   0.00000000000000E+00  -8.23549636666168E-20
     -1.85449375113876E-15  -1.85457610610243E-15  -6.66926086418356E-15   0.00000000000000E+00   0.00000000000000E+00
      0.00000000000000E+00   0.00000000000000E+00  -1.27957293498291E-19   1.60715662505610E-24  -1.27955686341665E-19
      2.34253622672463E-15   1.02866666666667E+00   1.02866666666667E+00   0.00000000000000E+00   0.00000000000000E+00
      1.85467819229699E-15   2.58694917812906E-20   1.85470406178877E-15   4.00579333346973E-15   0.00000000000000E+00
      0.00000000000000E+00   0.00000000000000E+00   0.00000000000000E+00   0.00000000000000E+00   0.00000000000000E+00
      0.00000000000000E+00   3.20931303989212E-16
      3.67888888888889E-01
      0.00000000000000E+00   0.00000000000000E+00   0.00000000000000E+00   0.00000000000000E+00  -1.36190065635660E-19
     -1.88066703295829E-15  -1.88080322302393E-15  -6.76623033587537E-15   0.00000000000000E+00   0.00000000000000E+00
      0.00000000000000E+00   0.00000000000000E+00  -7.42887164688036E-20  -1.05664704821977E-23  -7.42992829392858E-20
      2.34253622672462E-15   1.10366666666667E+00   1.10366666666667E+00   0.00000000000000E+00   0.00000000000000E+00
      1.88080950206628E-15   6.80202405849852E-20   1.88087752230687E-15   4.10745618353091E-15   0.00000000000000E+00
      0.00000000000000E+00   0.00000000000000E+00   0.00000000000000E+00   0.00000000000000E+00   0.00000000000000E+00
      0.00000000000000E+00   3.16237925619834E-16
      3.92888888888889E-01
      0.00000000000000E+00   0.00000000000000E+00   0.00000000000000E+00   0.00000000000000E+00  -1.49768250868168E-19
     -1.90723620615316E-15  -1.90738597440403E-15  -6.86250638299653E-15   0.00000000000000E+00   0.00000000000000E+00
      0.00000000000000E+00   0.00000000000000E+00  -6.09755021263259E-20   1.22177081172670E-23  -6.09632844182086E-20
      2.34253622672460E-15   1.17866666666667E+00   1.17866666666667E+00   0.00000000000000E+00   0.00000000000000E+00
      1.90736694050448E-15   7.99971839648294E-20   1.90744693768845E-15   4.20843867212590E-15   0.00000000000000E+00
      0.00000000000000E+00   0.00000000000000E+00   0.00000000000000E+00   0.00000000000000E+00   0.00000000000000E+00
      0.00000000000000E+00   3.11531484146025E-16
      4.17888888888889E-01
      0.00000000000000E+00   0.00000000000000E+00   0.00000000000000E+00   0.00000000000000E+00  -1.91714849688627E-19
     -1.93281412097910E-15  -1.93300583582879E-15  -6.95830055717948E-15   0.00000000000000E+00   0.00000000000000E+00
      0.00000000000000E+00   0.00000000000000E+00  -1.92420468040738E-20   2.27889612057745E-24  -1.92397679079532E-20
      2.34253622672459E-15   1.25366666666667E+00   1.25366666666667E+00   0.00000000000000E+00   0.00000000000000E+00
      1.93306793843082E-15  -4.28628341209159E-20   1.93302507559670E-15   4.30895205528692E-15   0.00000000000000E+00
      0.00000000000000E+00   0.00000000000000E+00   0.00000000000000E+00   0.00000000000000E+00   0.00000000000000E+00
      0.00000000000000E+00   3.06812275167977E-16
      4.42888888888889E-01
      0.00000000000000E+00   0.00000000000000E+00   0.00000000000000E+00   0.00000000000000E+00  -4.54010825053100E-20
     -1.95409767965786E-15  -1.95414308074036E-15  -7.05370964272142E-15   0.00000000000000E+00   0.00000000000000E+00
      0.00000000000000E+00   0.00000000000000E+00  -1.65761148598331E-19  -8.21769810295340E-24  -1.65769366296434E-19
      2.34253622672458E-15   1.32866666666667E+00   1.32866666666667E+00   0.00000000000000E+00   0.00000000000000E+00
      1.95436510742873E-15  -5.62573220776425E-20   1.95430885010666E-15   4.40909296340457E-15   0.00000000000000E+00
      0.00000000000000E+00   0.00000000000000E+00   0.00000000000000E+00   0.00000000000000E+00   0.00000000000000E+00
      0.00000000000000E+00   3.02080452592282E-16
      4.67888888888889E-01
      0.00000000000000E+00   0.00000000000000E+00   0.00000000000000E+00   0.00000000000000E+00  -1.58236487014611E-20
     -1.97135411764129E-15  -1.97136994128999E-15  -7.14877626088132E-15   0.00000000000000E+00   0.00000000000000E+00
      0.00000000000000E+00   0.00000000000000E+00  -1.95524410918263E-19  -5.78976824082070E-24  -1.95530200686504E-19
      2.34253622672419E-15   1.40366666666667E+00   1.40366666666667E+00   0.00000000000000E+00   0.00000000000000E+00
      1.97151728712216E-15   4.81843685154946E-20   1.97156547149067E-15   4.50890397591641E-15   0.00000000000000E+00
      0.00000000000000E+00   0.00000000000000E+00   0.00000000000000E+00   0.00000000000000E+00   0.00000000000000E+00
      0.00000000000000E+00   2.97336058240740E-16
      4.92888888888889E-01
      0.00000000000000E+00   0.00000000000000E+00   0.00000000000000E+00   0.00000000000000E+00  -9.92853587358961E-20
     -1.98829576779638E-15  -1.98839505315511E-15  -7.24351416919487E-15   0.00000000000000E+00   0.00000000000000E+00
      0.00000000000000E+00   0.00000000000000E+00  -1.12174649216624E-19  -7.90478836716673E-24  -1.12182554004991E-19
      2.34253622672417E-15   1.47866666666667E+00   1.47866666666667E+00   0.00000000000000E+00   0.00000000000000E+00
      1.98845982801439E-15   4.74076947317680E-20   1.98850723570912E-15   4.60839887229779E-15   0.00000000000000E+00
      0.00000000000000E+00   0.00000000000000E+00   0.00000000000000E+00   0.00000000000000E+00   0.00000000000000E+00
      0.00000000000000E+00   2.92579070172904E-16
      5.17888888888889E-01
      0.00000000000000E+00   0.00000000000000E+00   0.00000000000000E+00   0.00000000000000E+00   7.99710250504446E-20
     -2.00814342318251E-15  -2.00806345215746E-15  -7.33791912802447E-15   0.00000000000000E+00   0.00000000000000E+00
      0.00000000000000E+00   0.00000000000000E+00  -2.33340737832768E-19   2.81209421266185E-24  -2.33337925738555E-19
      2.34253622672463E-15   1.55366666666667E+00   1.55366666666667E+00   0.00000000000000E+00   0.00000000000000E+00
      2.01026713235603E-15  -1.97034227283392E-18   2.00829679008320E-15   4.70757342915176E-15   0.00000000000000E+00
      0.00000000000000E+00   0.00000000000000E+00   0.00000000000000E+00   0.00000000000000E+00   0.00000000000000E+00
      0.00000000000000E+00   2.87809472148085E-16
      5.42888888888889E-01
      0.00000000000000E+00   0.00000000000000E+00   0.00000000000000E+00   0.00000000000000E+00  -1.36882096084215E-19
     -2.04210320763402E-15  -2.04224008973011E-15  -7.43197517320489E-15   0.00000000000000E+00   0.00000000000000E+00
      0.00000000000000E+00   0.00000000000000E+00  -7.44952586747580E-20   4.27713346701345E-24  -7.44909815412910E-20
      2.34253622672419E-15   1.62866666666667E+00   1.62866666666667E+00   0.00000000000000E+00   0.00000000000000E+00
      2.04226685347486E-15   4.77272367871875E-20   2.04231458071165E-15   4.80641161284303E-15   0.00000000000000E+00
      0.00000000000000E+00   0.00000000000000E+00   0.00000000000000E+00   0.00000000000000E+00   0.00000000000000E+00
      0.00000000000000E+00   2.83027333637676E-16
      5.67888888888889E-01
      0.00000000000000E+00   0.00000000000000E+00   0.00000000000000E+00   0.00000000000000E+00  -3.22123966293570E-20
     -2.09074527750524E-15  -2.09077748990187E-15  -7.52565813480820E-15   0.00000000000000E+00   0.00000000000000E+00
      0.00000000000000E+00   0.00000000000000E+00  -1.79782821276125E-19   3.86923626006927E-24  -1.79778952039865E-19
      2.34253622672430E-15   1.70366666666667E+00   1.70366666666667E+00   0.00000000000000E+00   0.00000000000000E+00
      2.09091462511945E-15   4.26437344514758E-20   2.09095726885391E-15   4.90488903483120E-15   0.00000000000000E+00
      0.00000000000000E+00   0.00000000000000E+00   0.00000000000000E+00   0.00000000000000E+00   0.00000000000000E+00
      0.00000000000000E+00   2.78232873252709E-16
      5.92888888888889E-01
      0.00000000000000E+00   0.00000000000000E+00   0.00000000000000E+00   0.00000000000000E+00  -9.49051399273473E-20
     -2.16794658613467E-15  -2.16804149127460E-15  -7.61893599280043E-15   0.00000000000000E+00   0.00000000000000E+00
      0.00000000000000E+00   0.00000000000000E+00  -1.15959359467788E-19   2.66446998172521E-24  -1.15956694997806E-19
      2.34253622672458E-15   1.77866666666667E+00   1.77866666666667E+00   0.00000000000000E+00   0.00000000000000E+00
      2.16817787541053E-15  -2.04274409350855E-20   2.16815744796960E-15   5.00297328913332E-15   0.00000000000000E+00
      0.00000000000000E+00   0.00000000000000E+00   0.00000000000000E+00   0.00000000000000E+00   0.00000000000000E+00
      0.00000000000000E+00   2.73426476942550E-16
      6.17888888888889E-01
      0.00000000000000E+00   0.00000000000000E+00   0.00000000000000E+00   0.00000000000000E+00  -1.05921681721524E-19
     -2.28742685164633E-15  -2.28753277332805E-15  -7.71176637699093E-15   0.00000000000000E+00   0.00000000000000E+00
      0.00000000000000E+00   0.00000000000000E+00  -8.68868069464877E-20  -6.88101022902654E-24  -8.68936879567167E-20
      2.34253622672459E-15   1.85366666666667E+00   1.85366666666667E+00   0.00000000000000E+00   0.00000000000000E+00
      2.28761914575955E-15   5.21256463567956E-22   2.28761966701601E-15   5.10062148476261E-15   0.00000000000000E+00
      0.00000000000000E+00   0.00000000000000E+00   0.00000000000000E+00   0.00000000000000E+00   0.00000000000000E+00
      0.00000000000000E+00   2.68608665503738E-16
      6.42888888888889E-01
      0.00000000000000E+00   0.00000000000000E+00   0.00000000000000E+00   0.00000000000000E+00  -1.50487002535829E-19
     -2.44510261861593E-15  -2.44525310561847E-15  -7.80409244761265E-15   0.00000000000000E+00   0.00000000000000E+00
      0.00000000000000E+00   0.00000000000000E+00  -6.19218640235634E-20  -5.90066230645078E-25  -6.19224540897941E-20
      2.34253622672433E-15   1.92866666666667E+00   1.92866666666667E+00   0.00000000000000E+00   0.00000000000000E+00
      2.44526415916124E-15   5.08689113220649E-20   2.44531502807256E-15   5.19777618622167E-15   0.00000000000000E+00
      0.00000000000000E+00   0.00000000000000E+00   0.00000000000000E+00   0.00000000000000E+00   0.00000000000000E+00
      0.00000000000000E+00   2.63780034666649E-16
      6.67888888888889E-01
      0.00000000000000E+00   0.00000000000000E+00   0.00000000000000E+00   0.00000000000000E+00  -1.24290879843421E-19
     -2.60545894167165E-15  -2.60558323255150E-15  -7.89583814514945E-15   0.00000000000000E+00   0.00000000000000E+00
      0.00000000000000E+00   0.00000000000000E+00  -8.73678382587721E-20  -3.05533667432617E-24  -8.73708935954464E-20
      2.34253622672428E-15   2.00366666666667E+00   2.00366666666667E+00   0.00000000000000E+00   0.00000000000000E+00
      2.60561672562800E-15   5.38778170992963E-20   2.60567060344509E-15   5.29436072016618E-15   0.00000000000000E+00
      0.00000000000000E+00   0.00000000000000E+00   0.00000000000000E+00   0.00000000000000E+00   0.00000000000000E+00
      0.00000000000000E+00   2.58941198258994E-16
      6.92888888888889E-01
      0.00000000000000E+00   0.00000000000000E+00   0.00000000000000E+00   0.00000000000000E+00  -9.55843675817055E-20
     -2.72622722274511E-15  -2.72632280711269E-15  -7.98690267869203E-15   0.00000000000000E+00   0.00000000000000E+00
      0.00000000000000E+00   0.00000000000000E+00  -1.15562438532597E-19  -9.95590419098098E-24  -1.15572394436788E-19
      2.34253622672431E-15   2.07866666666667E+00   2.07866666666667E+00   0.00000000000000E+00   0.00000000000000E+00
      2.72641027726223E-15   2.81022448923487E-20   2.72643837950713E-15   5.39027370151440E-15   0.00000000000000E+00
      0.00000000000000E+00   0.00000000000000E+00   0.00000000000000E+00   0.00000000000000E+00   0.00000000000000E+00
      0.00000000000000E+00   2.54092750453317E-16
      7.17888888888889E-01
      0.00000000000000E+00   0.00000000000000E+00   0.00000000000000E+00   0.00000000000000E+00   2.55658779555880E-19
     -2.79637497505399E-15  -2.79611931627443E-15  -8.07715326892180E-15   0.00000000000000E+00   0.00000000000000E+00
      0.00000000000000E+00   0.00000000000000E+00  -2.03184977218561E-20  -7.08252797552362E-24  -2.03255802498317E-20
      2.34253622672478E-15   2.15366666666667E+00   2.15366666666667E+00   0.00000000000000E+00   0.00000000000000E+00
      2.79569445243685E-15   4.45189417825796E-19   2.79613964185468E-15   5.48538179645569E-15   0.00000000000000E+00
      0.00000000000000E+00   0.00000000000000E+00   0.00000000000000E+00   0.00000000000000E+00   0.00000000000000E+00
      0.00000000000000E+00   2.49235245741324E-16
      7.42888888888889E-01
      0.00000000000000E+00   0.00000000000000E+00   0.00000000000000E+00   0.00000000000000E+00   2.13446471212516E-19
     -2.82658655696495E-15  -2.82637311049374E-15  -8.16641575286410E-15   0.00000000000000E+00   0.00000000000000E+00
      0.00000000000000E+00   0.00000000000000E+00  -1.81440624078355E-19   1.52730206834074E-24  -1.81439096776287E-19
      2.34253622672528E-15   2.22866666666667E+00   2.22866666666667E+00   0.00000000000000E+00   0.00000000000000E+00
      2.82978998304486E-15  -3.23543345433964E-18   2.82655454959052E-15   5.57951033892113E-15   0.00000000000000E+00
      0.00000000000000E+00   0.00000000000000E+00   0.00000000000000E+00   0.00000000000000E+00   0.00000000000000E+00
      0.00000000000000E+00   2.44369187217692E-16
      7.67888888888889E-01
      0.00000000000000E+00   0.00000000000000E+00   0.00000000000000E+00   0.00000000000000E+00  -1.00070789783915E-19
     -2.84556610197697E-15  -2.84566617276676E-15  -8.25446597961145E-15   0.00000000000000E+00   0.00000000000000E+00
      0.00000000000000E+00   0.00000000000000E+00  -1.13571665927195E-19   7.36609391415619E-24  -1.13564299833281E-19
      2.34253622672420E-15   2.30366666666667E+00   2.30366666666667E+00   0.00000000000000E+00   0.00000000000000E+00
      2.84573138626730E-15   4.83507992882251E-20   2.84577973706658E-15   5.67243473647457E-15   0.00000000000000E+00
      0.00000000000000E+00   0.00000000000000E+00   0.00000000000000E+00   0.00000000000000E+00   0.00000000000000E+00
      0.00000000000000E+00   2.39495016412665E-16
      7.92888888888889E-01
      0.00000000000000E+00   0.00000000000000E+00   0.00000000000000E+00   0.00000000000000E+00  -1.26526436631008E-19
     -2.85182070901909E-15  -2.85194723545572E-15  -8.34103200668269E-15   0.00000000000000E+00   0.00000000000000E+00
      0.00000000000000E+00   0.00000000000000E+00  -8.73117441619007E-20   6.21118032099316E-25  -8.73111230438686E-20
      2.34253622672420E-15   2.37866666666667E+00   2.37866666666667E+00   0.00000000000000E+00   0.00000000000000E+00
      2.85394412480027E-15  -1.90957822151019E-18   2.85203454657876E-15   5.76388267464341E-15   0.00000000000000E+00
      0.00000000000000E+00   0.00000000000000E+00   0.00000000000000E+00   0.00000000000000E+00   0.00000000000000E+00
      0.00000000000000E+00   2.34613105315080E-16
      8.17888888888889E-01
      0.00000000000000E+00   0.00000000000000E+00   0.00000000000000E+00   0.00000000000000E+00  -1.12129164624993E-19
     -2.85978652217700E-15  -2.85989865134163E-15  -8.42582665649283E-15   0.00000000000000E+00   0.00000000000000E+00
      0.00000000000000E+00   0.00000000000000E+00  -1.01900991895693E-19   3.82993272707481E-24  -1.01897161962966E-19
      2.34253622672420E-15   2.45366666666667E+00   2.45366666666667E+00   0.00000000000000E+00   0.00000000000000E+00
      2.85994461932626E-15   5.59291773272052E-20   2.86000054850359E-15   5.85356667488183E-15   0.00000000000000E+00
      0.00000000000000E+00   0.00000000000000E+00   0.00000000000000E+00   0.00000000000000E+00   0.00000000000000E+00
      0.00000000000000E+00   2.29723754886794E-16
      8.42888888888889E-01
      0.00000000000000E+00   0.00000000000000E+00   0.00000000000000E+00   0.00000000000000E+00  -1.38951837699734E-19
     -2.86622820655263E-15  -2.86636715839033E-15  -8.50863082493135E-15   0.00000000000000E+00   0.00000000000000E+00
      0.00000000000000E+00   0.00000000000000E+00  -7.52697021078522E-20   4.97463693781136E-24  -7.52647274709144E-20
      2.34253622672419E-15   2.52866666666667E+00   2.52866666666667E+00   0.00000000000000E+00   0.00000000000000E+00
      2.86632610283402E-15   1.16320283786099E-19   2.86644242311780E-15   5.94126739615993E-15   0.00000000000000E+00
      0.00000000000000E+00   0.00000000000000E+00   0.00000000000000E+00   0.00000000000000E+00   0.00000000000000E+00
      0.00000000000000E+00   2.24827202047244E-16
      8.67888888888889E-01
      0.00000000000000E+00   0.00000000000000E+00   0.00000000000000E+00   0.00000000000000E+00  -1.26029751392047E-19