DF-ISE text

Info {
  version   = 1.0
  type      = xyplot
  datasets  = [
    "time"
    "substrate OuterVoltage" "substrate InnerVoltage" "substrate QuasiFermiPotential" "substrate DisplacementCurrent" "substrate eCurrent"
    "substrate hCurrent" "substrate TotalCurrent" "substrate Charge" "source OuterVoltage" "source InnerVoltage"
    "source QuasiFermiPotential" "source DisplacementCurrent" "source eCurrent" "source hCurrent" "source TotalCurrent"
    "source Charge" "drain OuterVoltage" "drain InnerVoltage" "drain QuasiFermiPotential" "drain DisplacementCurrent"
    "drain eCurrent" "drain hCurrent" "drain TotalCurrent" "drain Charge" "gate OuterVoltage"
    "gate InnerVoltage" "gate QuasiFermiPotential" "gate DisplacementCurrent" "gate eCurrent" "gate hCurrent"
    "gate TotalCurrent" "gate Charge" ]
  functions = [
    Time
    OuterVoltage InnerVoltage QuasiFermiPotential DisplacementCurrent eCurrent
    hCurrent TotalCurrent Charge OuterVoltage InnerVoltage
    QuasiFermiPotential DisplacementCurrent eCurrent hCurrent TotalCurrent
    Charge OuterVoltage InnerVoltage QuasiFermiPotential DisplacementCurrent
    eCurrent hCurrent TotalCurrent Charge OuterVoltage
    InnerVoltage QuasiFermiPotential DisplacementCurrent eCurrent hCurrent
    TotalCurrent Charge ]
}

Data {
      0.00000000000000E+00
      0.00000000000000E+00   0.00000000000000E+00   0.00000000000000E+00   0.00000000000000E+00   4.94615600598976E-19
     -2.06716447723462E-28   4.94615600392259E-19  -2.43501950167534E-15   0.00000000000000E+00   0.00000000000000E+00
      0.00000000000000E+00   0.00000000000000E+00  -1.56536949914656E-19   4.66258117727772E-28  -1.56536949448398E-19
      9.72314006600596E-16   0.00000000000000E+00   0.00000000000000E+00   0.00000000000000E+00   0.00000000000000E+00
     -3.38078650684304E-19  -2.59557845506478E-28  -3.38078650943861E-19   9.72314006600596E-16   1.00000000000000E+00
      1.00000000000000E+00   0.00000000000000E+00   0.00000000000000E+00   0.00000000000000E+00   0.00000000000000E+00
      0.00000000000000E+00   4.90391488474145E-16
      1.00000000000000E-02
      0.00000000000000E+00   0.00000000000000E+00   0.00000000000000E+00   0.00000000000000E+00   2.50626010920706E-16
     -1.96670342469931E-17   2.30958976673713E-16  -2.45835257982202E-15   0.00000000000000E+00   0.00000000000000E+00
      0.00000000000000E+00   0.00000000000000E+00  -2.80160489748554E-16  -4.96593237469891E-28  -2.80160489749051E-16
      9.72313771366629E-16   3.00000000000000E-02   3.00000000000000E-02   0.00000000000000E+00   0.00000000000000E+00
      4.91890014974543E-17   1.25115778836128E-20   4.92015130753379E-17   9.99875227893811E-16   1.00000000000000E+00
      1.00000000000000E+00   0.00000000000000E+00   0.00000000000000E+00   0.00000000000000E+00   0.00000000000000E+00
      0.00000000000000E+00   4.86163580561577E-16
      2.33333333333333E-02
      0.00000000000000E+00   0.00000000000000E+00   0.00000000000000E+00   0.00000000000000E+00  -1.46764810679386E-14
     -3.71647809612803E-17  -1.47136458488999E-14  -2.48929216244794E-15   0.00000000000000E+00   0.00000000000000E+00
      0.00000000000000E+00   0.00000000000000E+00  -3.48510044316330E-16  -8.42725804679310E-28  -3.48510044317173E-16
      9.72313449680697E-16   7.00000000000000E-02   7.00000000000000E-02   0.00000000000000E+00   0.00000000000000E+00
      1.50621387539791E-14   1.71392379789193E-20   1.50621558932171E-14   1.03644880215859E-15   1.00000000000000E+00
      1.00000000000000E+00   0.00000000000000E+00   0.00000000000000E+00   0.00000000000000E+00   0.00000000000000E+00
      0.00000000000000E+00   4.80529910608654E-16
      4.28888888888889E-02
      0.00000000000000E+00   0.00000000000000E+00   0.00000000000000E+00   0.00000000000000E+00   4.07017453436161E-20
     -5.82094553931092E-17  -5.81687536477656E-17  -2.53432807811872E-15   0.00000000000000E+00   0.00000000000000E+00
      0.00000000000000E+00   0.00000000000000E+00  -3.58926536902052E-16  -4.75675573467552E-28  -3.58926536902528E-16
      9.72312960952309E-16   1.28666666666667E-01   1.28666666666667E-01   0.00000000000000E+00   0.00000000000000E+00
      4.17080418412961E-16   1.48721373320315E-20   4.17095290550293E-16   1.08974250017660E-15   1.00000000000000E+00
      1.00000000000000E+00   0.00000000000000E+00   0.00000000000000E+00   0.00000000000000E+00   0.00000000000000E+00
      0.00000000000000E+00   4.72272616989801E-16
      6.78888888888889E-02
      0.00000000000000E+00   0.00000000000000E+00   0.00000000000000E+00   0.00000000000000E+00   7.97716106894050E-19
     -8.61243592669025E-17  -8.53266431600084E-17  -2.59130090507881E-15   0.00000000000000E+00   0.00000000000000E+00
      0.00000000000000E+00   0.00000000000000E+00  -3.72461983261722E-16   3.23236697241101E-28  -3.72461983261399E-16
      9.72312306233544E-16   2.03666666666667E-01   2.03666666666667E-01   0.00000000000000E+00   0.00000000000000E+00
      4.57655205374480E-16   1.33421046926775E-19   4.57788626421407E-16   1.15726609141052E-15   1.00000000000000E+00
      1.00000000000000E+00   0.00000000000000E+00   0.00000000000000E+00   0.00000000000000E+00   0.00000000000000E+00
      0.00000000000000E+00   4.61722507434750E-16
      9.28888888888889E-02
      0.00000000000000E+00   0.00000000000000E+00   0.00000000000000E+00   0.00000000000000E+00  -5.23283599561513E-19
     -1.19625510944376E-16  -1.20148794543938E-16  -2.64755856933189E-15   0.00000000000000E+00   0.00000000000000E+00
      0.00000000000000E+00   0.00000000000000E+00  -3.83273816907639E-16  -1.40541042732205E-28  -3.83273816907779E-16
      9.72311617195870E-16   2.78666666666667E-01   2.78666666666667E-01   0.00000000000000E+00   0.00000000000000E+00
      5.03402576089164E-16   2.00353625528972E-20   5.03422611451717E-16   1.22407092883948E-15   1.00000000000000E+00
      1.00000000000000E+00   0.00000000000000E+00   0.00000000000000E+00   0.00000000000000E+00   0.00000000000000E+00
      0.00000000000000E+00   4.51176023296533E-16
      1.17888888888889E-01
      0.00000000000000E+00   0.00000000000000E+00   0.00000000000000E+00   0.00000000000000E+00   3.65794560480734E-19
     -1.68116201329877E-16  -1.67750406769396E-16  -2.70304332585095E-15   0.00000000000000E+00   0.00000000000000E+00
      0.00000000000000E+00   0.00000000000000E+00  -3.95861217349980E-16   1.42769419924963E-28  -3.95861217349838E-16
      9.72310893153471E-16   3.53666666666667E-01   3.53666666666667E-01   0.00000000000000E+00   0.00000000000000E+00
      5.63490331743927E-16   1.21292375305732E-19   5.63611624119233E-16   1.29010165195655E-15   1.00000000000000E+00
      1.00000000000000E+00   0.00000000000000E+00   0.00000000000000E+00   0.00000000000000E+00   0.00000000000000E+00
      0.00000000000000E+00   4.40630780740928E-16
      1.42888888888889E-01
      0.00000000000000E+00   0.00000000000000E+00   0.00000000000000E+00   0.00000000000000E+00  -3.48816576246146E-19
     -2.39803731406776E-16  -2.40152547983022E-16  -2.75767799756649E-15   0.00000000000000E+00   0.00000000000000E+00
      0.00000000000000E+00   0.00000000000000E+00  -4.07111529911008E-16   1.57950611181463E-28  -4.07111529910850E-16
      9.72310133542451E-16   4.28666666666667E-01   4.28666666666667E-01   0.00000000000000E+00   0.00000000000000E+00
      6.47203475812282E-16   6.06020815908036E-20   6.47264077893873E-16   1.35528260896678E-15   1.00000000000000E+00
      1.00000000000000E+00   0.00000000000000E+00   0.00000000000000E+00   0.00000000000000E+00   0.00000000000000E+00
      0.00000000000000E+00   4.30085255057257E-16
      1.67888888888889E-01
      0.00000000000000E+00   0.00000000000000E+00   0.00000000000000E+00   0.00000000000000E+00  -5.39318154649486E-19
     -3.35730697536912E-16  -3.36270015691562E-16  -2.81134727535997E-15   0.00000000000000E+00   0.00000000000000E+00
      0.00000000000000E+00   0.00000000000000E+00  -4.19588664330323E-16   1.17519442859697E-29  -4.19588664330311E-16
      9.72309337903510E-16   5.03666666666667E-01   5.03666666666667E-01   0.00000000000000E+00   0.00000000000000E+00
      7.55824127654951E-16   3.45523669222194E-20   7.55858680021873E-16   1.41949936162037E-15   1.00000000000000E+00
      1.00000000000000E+00   0.00000000000000E+00   0.00000000000000E+00   0.00000000000000E+00   0.00000000000000E+00
      0.00000000000000E+00   4.19538575836093E-16
      1.92888888888889E-01
      0.00000000000000E+00   0.00000000000000E+00   0.00000000000000E+00   0.00000000000000E+00   4.02503496714872E-20
     -4.47011027619023E-16  -4.46970777269351E-16  -2.86388407581996E-15   0.00000000000000E+00   0.00000000000000E+00
      0.00000000000000E+00   0.00000000000000E+00  -4.32656160220614E-16  -9.69088657190161E-28  -4.32656160221583E-16
      9.72308505861182E-16   5.78666666666667E-01   5.78666666666667E-01   0.00000000000000E+00   0.00000000000000E+00
      8.81171597208777E-16  -1.54465971784338E-18   8.79626937490934E-16   1.48258520611617E-15   1.00000000000000E+00
      1.00000000000000E+00   0.00000000000000E+00   0.00000000000000E+00   0.00000000000000E+00   0.00000000000000E+00
      0.00000000000000E+00   4.08990363842605E-16
      2.17888888888889E-01
      0.00000000000000E+00   0.00000000000000E+00   0.00000000000000E+00   0.00000000000000E+00  -5.29462942131191E-19
     -5.44729889740468E-16  -5.45259352682599E-16  -2.91508018199922E-15   0.00000000000000E+00   0.00000000000000E+00
      0.00000000000000E+00   0.00000000000000E+00  -4.44808584994379E-16  -2.23402184635297E-28  -4.44808584994602E-16
      9.72307637117478E-16   6.53666666666667E-01   6.53666666666667E-01   0.00000000000000E+00   0.00000000000000E+00
      9.89789419808593E-16   2.78517868608323E-19   9.90067937677202E-16   1.54433193858397E-15   1.00000000000000E+00
      1.00000000000000E+00   0.00000000000000E+00   0.00000000000000E+00   0.00000000000000E+00   0.00000000000000E+00
      0.00000000000000E+00   3.98440606297766E-16
      2.42888888888889E-01
      0.00000000000000E+00   0.00000000000000E+00   0.00000000000000E+00   0.00000000000000E+00   1.13967240772645E-18
     -6.03527718097191E-16  -6.02388045689465E-16  -2.96474979546205E-15   0.00000000000000E+00   0.00000000000000E+00
      0.00000000000000E+00   0.00000000000000E+00  -4.59327194471588E-16  -4.66960366197231E-28  -4.59327194472055E-16
      9.72306731439531E-16   7.28666666666667E-01   7.28666666666667E-01   0.00000000000000E+00   0.00000000000000E+00
      1.06164786674212E-15   6.73734194041857E-20   1.06171524016152E-15   1.60455352350963E-15   1.00000000000000E+00
      1.00000000000000E+00   0.00000000000000E+00   0.00000000000000E+00   0.00000000000000E+00   0.00000000000000E+00
      0.00000000000000E+00   3.87889540512880E-16
      2.67888888888889E-01
      0.00000000000000E+00   0.00000000000000E+00   0.00000000000000E+00   0.00000000000000E+00  -8.82137723062518E-19
     -6.40413071311988E-16  -6.41295209035051E-16  -3.01285268811350E-15   0.00000000000000E+00   0.00000000000000E+00
      0.00000000000000E+00   0.00000000000000E+00  -4.70456286263631E-16   8.08788682122500E-29  -4.70456286263550E-16
      9.72305788610667E-16   8.03666666666667E-01   8.03666666666667E-01   0.00000000000000E+00   0.00000000000000E+00
      1.11173142982046E-15   2.00654781418280E-20   1.11175149529860E-15   1.66320938042034E-15   1.00000000000000E+00
      1.00000000000000E+00   0.00000000000000E+00   0.00000000000000E+00   0.00000000000000E+00   0.00000000000000E+00
      0.00000000000000E+00   3.77337519082489E-16
      2.92888888888889E-01
      0.00000000000000E+00   0.00000000000000E+00   0.00000000000000E+00   0.00000000000000E+00   6.00140460867059E-19
     -6.65313005443234E-16  -6.64712864982367E-16  -3.05957314764293E-15   0.00000000000000E+00   0.00000000000000E+00
      0.00000000000000E+00   0.00000000000000E+00  -4.85197909893722E-16  -7.01014364334003E-29  -4.85197909893793E-16
      9.72304808350053E-16   8.78666666666667E-01   8.78666666666667E-01   0.00000000000000E+00   0.00000000000000E+00
      1.14989069490411E-15   2.00799720473589E-20   1.14991077487616E-15   1.72048345896900E-15   1.00000000000000E+00
      1.00000000000000E+00   0.00000000000000E+00   0.00000000000000E+00   0.00000000000000E+00   0.00000000000000E+00
      0.00000000000000E+00   3.66784880323866E-16
      3.17888888888889E-01
      0.00000000000000E+00   0.00000000000000E+00   0.00000000000000E+00   0.00000000000000E+00  -1.77952769378009E-19
     -6.81068127001976E-16  -6.81246079771354E-16  -3.10523039166262E-15   0.00000000000000E+00   0.00000000000000E+00
      0.00000000000000E+00   0.00000000000000E+00  -4.97926913438061E-16  -3.65001837438651E-28  -4.97926913438426E-16
      9.72303790246985E-16   9.53666666666667E-01   9.53666666666667E-01   0.00000000000000E+00   0.00000000000000E+00
      1.17915291565009E-15   2.00775596963398E-20   1.17917299320978E-15   1.77669471732685E-15   1.00000000000000E+00
      1.00000000000000E+00   0.00000000000000E+00   0.00000000000000E+00   0.00000000000000E+00   0.00000000000000E+00
      0.00000000000000E+00   3.56231884088781E-16
      3.42888888888889E-01
      0.00000000000000E+00   0.00000000000000E+00   0.00000000000000E+00   0.00000000000000E+00   1.87041111190190E-19
     -6.92284149643797E-16  -6.92097108532607E-16  -3.15012270283130E-15   0.00000000000000E+00   0.00000000000000E+00
      0.00000000000000E+00   0.00000000000000E+00  -5.12046010877149E-16  -2.42802090796734E-28  -5.12046010877392E-16
      9.72302733757486E-16   1.02866666666667E+00   1.02866666666667E+00   0.00000000000000E+00   0.00000000000000E+00
      1.20412303507193E-15   2.00843380665202E-20   1.20414311941000E-15   1.83214121828853E-15   1.00000000000000E+00
      1.00000000000000E+00   0.00000000000000E+00   0.00000000000000E+00   0.00000000000000E+00   0.00000000000000E+00
      0.00000000000000E+00   3.45678750785280E-16
      3.67888888888889E-01
      0.00000000000000E+00   0.00000000000000E+00   0.00000000000000E+00   0.00000000000000E+00   8.95520914138214E-20
     -7.00996149686181E-16  -7.00906597594767E-16  -3.19446130785158E-15   0.00000000000000E+00   0.00000000000000E+00
      0.00000000000000E+00   0.00000000000000E+00  -5.25934392092195E-16   5.47854820407867E-28  -5.25934392091647E-16
      9.72301638273952E-16   1.10366666666667E+00   1.10366666666667E+00   0.00000000000000E+00   0.00000000000000E+00
      1.22682089780360E-15   2.00918828135144E-20   1.22684098968641E-15   1.88703388512755E-15   1.00000000000000E+00
      1.00000000000000E+00   0.00000000000000E+00   0.00000000000000E+00   0.00000000000000E+00   0.00000000000000E+00
      0.00000000000000E+00   3.35125784450072E-16
      3.92888888888889E-01
      0.00000000000000E+00   0.00000000000000E+00   0.00000000000000E+00   0.00000000000000E+00  -8.47933354490364E-21
     -7.08001182082933E-16  -7.08009661416478E-16  -3.23837803591174E-15   0.00000000000000E+00   0.00000000000000E+00
      0.00000000000000E+00   0.00000000000000E+00  -5.40080899907582E-16   5.80424663568650E-28  -5.40080899907002E-16
      9.72300503238554E-16   1.17866666666667E+00   1.17866666666667E+00   0.00000000000000E+00   0.00000000000000E+00
      1.24807047626077E-15   2.00850627074416E-20   1.24809056132348E-15   1.94150401051967E-15   1.00000000000000E+00
      1.00000000000000E+00   0.00000000000000E+00   0.00000000000000E+00   0.00000000000000E+00   0.00000000000000E+00
      0.00000000000000E+00   3.24573522153523E-16
      4.17888888888889E-01
      0.00000000000000E+00   0.00000000000000E+00   0.00000000000000E+00   0.00000000000000E+00  -8.13080570480181E-20
     -7.14784401927109E-16  -7.14865709984157E-16  -3.28194838436267E-15   0.00000000000000E+00   0.00000000000000E+00
      0.00000000000000E+00   0.00000000000000E+00  -5.54512556365939E-16   4.23506126440850E-28  -5.54512556365515E-16
      9.72299328254225E-16   1.25366666666667E+00   1.25366666666667E+00   0.00000000000000E+00   0.00000000000000E+00
      1.26935816336849E-15   2.01029811862796E-20   1.26937826634967E-15   1.99562620438744E-15   1.00000000000000E+00
      1.00000000000000E+00   0.00000000000000E+00   0.00000000000000E+00   0.00000000000000E+00   0.00000000000000E+00
      0.00000000000000E+00   3.14022851721006E-16
      4.42888888888889E-01
      0.00000000000000E+00   0.00000000000000E+00   0.00000000000000E+00   0.00000000000000E+00   2.64499924931133E-19
     -7.22432111647434E-16  -7.22167611722503E-16  -3.32521177773131E-15   0.00000000000000E+00   0.00000000000000E+00
      0.00000000000000E+00   0.00000000000000E+00  -5.69630925013787E-16   2.64399252130177E-28  -5.69630925013523E-16
      9.72298113152418E-16   1.32866666666667E+00   1.32866666666667E+00   0.00000000000000E+00   0.00000000000000E+00
      1.29177837565280E-15   2.01610832284913E-20   1.29179853673603E-15   2.04943860682458E-15   1.00000000000000E+00
      1.00000000000000E+00   0.00000000000000E+00   0.00000000000000E+00   0.00000000000000E+00   0.00000000000000E+00
      0.00000000000000E+00   3.03475057754316E-16
      4.67888888888889E-01
      0.00000000000000E+00   0.00000000000000E+00   0.00000000000000E+00   0.00000000000000E+00   2.61700704476840E-20
     -7.31602943791458E-16  -7.31576773721010E-16  -3.36818695399089E-15   0.00000000000000E+00   0.00000000000000E+00
      0.00000000000000E+00   0.00000000000000E+00  -5.84433611544868E-16  -4.49515072200466E-28  -5.84433611545317E-16
      9.72296857993468E-16   1.40366666666667E+00   1.40366666666667E+00   0.00000000000000E+00   0.00000000000000E+00
      1.31599035371956E-15   2.00315467648829E-20   1.31601038526633E-15   2.10295832593106E-15   1.00000000000000E+00
      1.00000000000000E+00   0.00000000000000E+00   0.00000000000000E+00   0.00000000000000E+00   0.00000000000000E+00
      0.00000000000000E+00   2.92931770066361E-16
      4.92888888888889E-01
      0.00000000000000E+00   0.00000000000000E+00   0.00000000000000E+00   0.00000000000000E+00  -1.23387451368212E-18
     -7.42112049579538E-16  -7.43345924093220E-16  -3.41088266543110E-15   0.00000000000000E+00   0.00000000000000E+00
      0.00000000000000E+00   0.00000000000000E+00  -5.98485793246994E-16  -5.98945816075722E-29  -5.98485793247054E-16
      9.72295562990557E-16   1.47866666666667E+00   1.47866666666667E+00   0.00000000000000E+00   0.00000000000000E+00
      1.34181168202328E-15   2.00353169967194E-20   1.34183171734027E-15   2.15619231267289E-15   1.00000000000000E+00
      1.00000000000000E+00   0.00000000000000E+00   0.00000000000000E+00   0.00000000000000E+00   0.00000000000000E+00
      0.00000000000000E+00   2.82394789767653E-16
      5.17888888888889E-01
      0.00000000000000E+00   0.00000000000000E+00   0.00000000000000E+00   0.00000000000000E+00  -1.43996592147419E-20
     -7.52488285439279E-16  -7.52502685098493E-16  -3.45330449576615E-15   0.00000000000000E+00   0.00000000000000E+00
      0.00000000000000E+00   0.00000000000000E+00  -6.15287387221017E-16  -7.01924847437650E-28  -6.15287387221719E-16
      9.72294228354447E-16   1.55366666666667E+00   1.55366666666667E+00   0.00000000000000E+00   0.00000000000000E+00
      1.36777013542099E-15   1.99368992226959E-20   1.36779007232021E-15   2.20914450268346E-15   1.00000000000000E+00
      1.00000000000000E+00   0.00000000000000E+00   0.00000000000000E+00   0.00000000000000E+00   0.00000000000000E+00
      0.00000000000000E+00   2.71865764728248E-16
      5.42888888888889E-01
      0.00000000000000E+00   0.00000000000000E+00   0.00000000000000E+00   0.00000000000000E+00  -9.15206037131694E-20
     -7.63179506907705E-16  -7.63271027511418E-16  -3.49545825990868E-15   0.00000000000000E+00   0.00000000000000E+00
      0.00000000000000E+00   0.00000000000000E+00  -6.31067286074442E-16  -2.68592907695977E-28  -6.31067286074711E-16
      9.72292854065332E-16   1.62866666666667E+00   1.62866666666667E+00   0.00000000000000E+00   0.00000000000000E+00
      1.39431853404253E-15   1.97795436004700E-20   1.39433831358613E-15   2.26181968748667E-15   1.00000000000000E+00
      1.00000000000000E+00   0.00000000000000E+00   0.00000000000000E+00   0.00000000000000E+00   0.00000000000000E+00
      0.00000000000000E+00   2.61345718356675E-16
      5.67888888888889E-01
      0.00000000000000E+00   0.00000000000000E+00   0.00000000000000E+00   0.00000000000000E+00  -6.49891619042756E-19
     -7.77710475938260E-16  -7.78360367557302E-16  -3.53735035165413E-15   0.00000000000000E+00   0.00000000000000E+00
      0.00000000000000E+00   0.00000000000000E+00  -6.46649518199406E-16  -4.87202401552724E-28  -6.46649518199893E-16
      9.72291439619286E-16   1.70366666666667E+00   1.70366666666667E+00   0.00000000000000E+00   0.00000000000000E+00
      1.42499063416240E-15   1.92515947916576E-20   1.42500988575719E-15   2.31422436093398E-15   1.00000000000000E+00
      1.00000000000000E+00   0.00000000000000E+00   0.00000000000000E+00   0.00000000000000E+00   0.00000000000000E+00
      0.00000000000000E+00   2.50834551100869E-16
      5.92888888888889E-01
      0.00000000000000E+00   0.00000000000000E+00   0.00000000000000E+00   0.00000000000000E+00   2.09636280786129E-20
     -8.01341667520187E-16  -8.01320703892108E-16  -3.57898606229057E-15   0.00000000000000E+00   0.00000000000000E+00
      0.00000000000000E+00   0.00000000000000E+00  -6.63761535914759E-16   2.22648505382800E-28  -6.63761535914536E-16
      9.72289983863282E-16   1.77866666666667E+00   1.77866666666667E+00   0.00000000000000E+00   0.00000000000000E+00
      1.46506267225984E-15   1.95675468025386E-20   1.46508223980664E-15   2.36636529684565E-15   1.00000000000000E+00
      1.00000000000000E+00   0.00000000000000E+00   0.00000000000000E+00   0.00000000000000E+00   0.00000000000000E+00
      0.00000000000000E+00   2.40330781581644E-16
      6.17888888888889E-01
      0.00000000000000E+00   0.00000000000000E+00   0.00000000000000E+00   0.00000000000000E+00   1.07443806732932E-18
     -8.38726949251469E-16  -8.37652511184140E-16  -3.62036722641274E-15   0.00000000000000E+00   0.00000000000000E+00
      0.00000000000000E+00   0.00000000000000E+00  -6.80137785044405E-16  -1.69895752947604E-28  -6.80137785044575E-16
      9.72288485039349E-16   1.85366666666667E+00   1.85366666666667E+00   0.00000000000000E+00   0.00000000000000E+00
      1.51776415685688E-15   2.61393718386151E-20   1.51779029622872E-15   2.41824697246483E-15   1.00000000000000E+00
      1.00000000000000E+00   0.00000000000000E+00   0.00000000000000E+00   0.00000000000000E+00   0.00000000000000E+00
      0.00000000000000E+00   2.29831768908556E-16
      6.42888888888889E-01
      0.00000000000000E+00   0.00000000000000E+00   0.00000000000000E+00   0.00000000000000E+00   1.15485101807656E-18
     -8.86232731325287E-16  -8.85077880307210E-16  -3.66149009868772E-15   0.00000000000000E+00   0.00000000000000E+00
      0.00000000000000E+00   0.00000000000000E+00  -6.97873610903093E-16   6.62583912662140E-29  -6.97873610903027E-16
      9.72286941038848E-16   1.92866666666667E+00   1.92866666666667E+00   0.00000000000000E+00   0.00000000000000E+00
      1.58292745051748E-15   2.40406927563098E-20   1.58295149121024E-15   2.46986880293102E-15   1.00000000000000E+00
      1.00000000000000E+00   0.00000000000000E+00   0.00000000000000E+00   0.00000000000000E+00   0.00000000000000E+00
      0.00000000000000E+00   2.19334354717851E-16
      6.67888888888889E-01
      0.00000000000000E+00   0.00000000000000E+00   0.00000000000000E+00   0.00000000000000E+00   1.95560397165198E-19
     -9.30057658457379E-16  -9.29862098060214E-16  -3.70234375298507E-15   0.00000000000000E+00   0.00000000000000E+00
      0.00000000000000E+00   0.00000000000000E+00  -7.15308617963052E-16   3.06615658596223E-28  -7.15308617962745E-16
      9.72285349721830E-16   2.00366666666667E+00   2.00366666666667E+00   0.00000000000000E+00   0.00000000000000E+00
      1.64515059496076E-15   2.01210621963708E-20   1.64517071602296E-15   2.52122283669279E-15   1.00000000000000E+00
      1.00000000000000E+00   0.00000000000000E+00   0.00000000000000E+00   0.00000000000000E+00   0.00000000000000E+00
      0.00000000000000E+00   2.08835566570461E-16
      6.92888888888889E-01
      0.00000000000000E+00   0.00000000000000E+00   0.00000000000000E+00   0.00000000000000E+00  -6.00526291270427E-19
     -9.60954753333066E-16  -9.61555279624336E-16  -3.74290886371518E-15   0.00000000000000E+00   0.00000000000000E+00
      0.00000000000000E+00   0.00000000000000E+00  -7.32417514038302E-16  -4.22527246367124E-28  -7.32417514038724E-16
      9.72283709148964E-16   2.07866666666667E+00   2.07866666666667E+00   0.00000000000000E+00   0.00000000000000E+00
      1.69395266256171E-15   2.01311013534330E-20   1.69397279366306E-15   2.57229209303792E-15   1.00000000000000E+00
      1.00000000000000E+00   0.00000000000000E+00   0.00000000000000E+00   0.00000000000000E+00   0.00000000000000E+00
      0.00000000000000E+00   1.98333061528300E-16
      7.17888888888889E-01
      0.00000000000000E+00   0.00000000000000E+00   0.00000000000000E+00   0.00000000000000E+00  -5.80210246552337E-19
     -9.81556431465059E-16  -9.82136641711612E-16  -3.78315653725217E-15   0.00000000000000E+00   0.00000000000000E+00
      0.00000000000000E+00   0.00000000000000E+00  -7.50771745221443E-16   4.96475337030586E-28  -7.50771745220946E-16
      9.72282017673019E-16   2.15366666666667E+00   2.15366666666667E+00   0.00000000000000E+00   0.00000000000000E+00
      1.73288825317821E-15   2.01337543520133E-20   1.73290838693256E-15   2.62304927183757E-15   1.00000000000000E+00
      1.00000000000000E+00   0.00000000000000E+00   0.00000000000000E+00   0.00000000000000E+00   0.00000000000000E+00
      0.00000000000000E+00   1.87825247741589E-16
      7.42888888888889E-01
      0.00000000000000E+00   0.00000000000000E+00   0.00000000000000E+00   0.00000000000000E+00   8.17278319445531E-19
     -9.98495311668378E-16  -9.97678033348932E-16  -3.82304708886391E-15   0.00000000000000E+00   0.00000000000000E+00
      0.00000000000000E+00   0.00000000000000E+00  -7.70949345858167E-16  -1.34425685120113E-28  -7.70949345858301E-16
      9.72280273925027E-16   2.22866666666667E+00   2.22866666666667E+00   0.00000000000000E+00   0.00000000000000E+00
      1.76860724365124E-15   2.01355559909266E-20   1.76862737920723E-15   2.67345561452795E-15   1.00000000000000E+00
      1.00000000000000E+00   0.00000000000000E+00   0.00000000000000E+00   0.00000000000000E+00   0.00000000000000E+00
      0.00000000000000E+00   1.77311200410935E-16
      7.67888888888889E-01
      0.00000000000000E+00   0.00000000000000E+00   0.00000000000000E+00   0.00000000000000E+00  -9.78172975954006E-19
     -1.01489665575043E-15  -1.01587482872638E-15  -3.86252951273989E-15   0.00000000000000E+00   0.00000000000000E+00
      0.00000000000000E+00   0.00000000000000E+00  -7.88399026754338E-16  -3.90600982236622E-28  -7.88399026754729E-16
      9.72278476750480E-16   2.30366666666667E+00   2.30366666666667E+00   0.00000000000000E+00   0.00000000000000E+00
      1.80425371779188E-15   2.01376892348327E-20   1.80427385548111E-15   2.72346053057956E-15   1.00000000000000E+00
      1.00000000000000E+00   0.00000000000000E+00   0.00000000000000E+00   0.00000000000000E+00   0.00000000000000E+00
      0.00000000000000E+00   1.66790505409849E-16
      7.92888888888889E-01
      0.00000000000000E+00   0.00000000000000E+00   0.00000000000000E+00   0.00000000000000E+00   6.51177505671434E-19
     -1.02926053511875E-15  -1.02860935761308E-15  -3.90154403211239E-15   0.00000000000000E+00   0.00000000000000E+00
      0.00000000000000E+00   0.00000000000000E+00  -8.09756517358917E-16  -1.16047928355126E-28  -8.09756517359034E-16
      9.72276625141219E-16   2.37866666666667E+00   2.37866666666667E+00   0.00000000000000E+00   0.00000000000000E+00
      1.83834573543848E-15   2.01395336398410E-20   1.83836587497212E-15   2.77300429784856E-15   1.00000000000000E+00
      1.00000000000000E+00   0.00000000000000E+00   0.00000000000000E+00   0.00000000000000E+00   0.00000000000000E+00
      0.00000000000000E+00   1.56263109122617E-16
      8.17888888888889E-01
      0.00000000000000E+00   0.00000000000000E+00   0.00000000000000E+00   0.00000000000000E+00  -8.75783144301740E-19
     -1.03966772885115E-15  -1.04054351199545E-15  -3.94003188741847E-15   0.00000000000000E+00   0.00000000000000E+00
      0.00000000000000E+00   0.00000000000000E+00  -8.28459127365197E-16  -5.91935176296019E-28  -8.28459127365789E-16
      9.72274718169152E-16   2.45366666666667E+00   2.45366666666667E+00   0.00000000000000E+00   0.00000000000000E+00
      1.86898249805974E-15   2.01413014982983E-20   1.86900263936124E-15   2.82202796664042E-15   1.00000000000000E+00
      1.00000000000000E+00   0.00000000000000E+00   0.00000000000000E+00   0.00000000000000E+00   0.00000000000000E+00
      0.00000000000000E+00   1.45729202608899E-16
      8.42888888888889E-01
      0.00000000000000E+00   0.00000000000000E+00   0.00000000000000E+00   0.00000000000000E+00  -1.20351930540945E-18
     -1.04658376630790E-15  -1.04778728561331E-15  -3.97795461065101E-15   0.00000000000000E+00   0.00000000000000E+00
      0.00000000000000E+00   0.00000000000000E+00  -8.48877525101035E-16  -1.31514960269299E-28  -8.48877525101167E-16
      9.72272754943379E-16   2.52866666666667E+00   2.52866666666667E+00   0.00000000000000E+00   0.00000000000000E+00
      1.89664466772058E-15   2.01429938960873E-20   1.89666481071448E-15   2.87049271428549E-15   1.00000000000000E+00
      1.00000000000000E+00   0.00000000000000E+00   0.00000000000000E+00   0.00000000000000E+00   0.00000000000000E+00
      0.00000000000000E+00   1.35189141422140E-16
      8.67888888888889E-01
      0.00000000000000E+00   0.00000000000000E+00   0.00000000000000E+00   0.00000000000000E+00  -6.29317746375469E-19