DF-ISE text

Info {
  version   = 1.0
  type      = xyplot
  datasets  = [
    "time"
    "substrate OuterVoltage" "substrate InnerVoltage" "substrate QuasiFermiPotential" "substrate DisplacementCurrent" "substrate eCurrent"
    "substrate hCurrent" "substrate TotalCurrent" "substrate Charge" "source OuterVoltage" "source InnerVoltage"
    "source QuasiFermiPotential" "source DisplacementCurrent" "source eCurrent" "source hCurrent" "source TotalCurrent"
    "source Charge" "drain OuterVoltage" "drain InnerVoltage" "drain QuasiFermiPotential" "drain DisplacementCurrent"
    "drain eCurrent" "drain hCurrent" "drain TotalCurrent" "drain Charge" "gate OuterVoltage"
    "gate InnerVoltage" "gate QuasiFermiPotential" "gate DisplacementCurrent" "gate eCurrent" "gate hCurrent"
    "gate TotalCurrent" "gate Charge" ]
  functions = [
    Time
    OuterVoltage InnerVoltage QuasiFermiPotential DisplacementCurrent eCurrent
    hCurrent TotalCurrent Charge OuterVoltage InnerVoltage
    QuasiFermiPotential DisplacementCurrent eCurrent hCurrent TotalCurrent
    Charge OuterVoltage InnerVoltage QuasiFermiPotential DisplacementCurrent
    eCurrent hCurrent TotalCurrent Charge OuterVoltage
    InnerVoltage QuasiFermiPotential DisplacementCurrent eCurrent hCurrent
    TotalCurrent Charge ]
}

Data {
      0.00000000000000E+00
      0.00000000000000E+00   0.00000000000000E+00   0.00000000000000E+00   0.00000000000000E+00  -2.34537453223372E-18
     -4.17321224196488E-28  -2.34537453265104E-18  -4.27923371762625E-15   0.00000000000000E+00   0.00000000000000E+00
      0.00000000000000E+00   0.00000000000000E+00   1.17041311649668E-18  -3.23968105215887E-28   1.17041311617271E-18
      1.11574690406403E-15   0.00000000000000E+00   0.00000000000000E+00   0.00000000000000E+00   0.00000000000000E+00
      1.17496141573697E-18   7.41361136064452E-28   1.17496141647833E-18   1.11574690406403E-15   3.00000000000000E+00
      3.00000000000000E+00   0.00000000000000E+00   0.00000000000000E+00   0.00000000000000E+00   0.00000000000000E+00
      0.00000000000000E+00   2.04773990949819E-15
      1.00000000000000E-02
      0.00000000000000E+00   0.00000000000000E+00   0.00000000000000E+00   0.00000000000000E+00   4.65907276123351E-18
     -3.66553256492433E-17  -3.19962528880098E-17  -4.29978042678760E-15   0.00000000000000E+00   0.00000000000000E+00
      0.00000000000000E+00   0.00000000000000E+00  -4.10659151787139E-06  -3.47380002498795E-25  -4.10659151787139E-06
      1.11568475634420E-15   3.00000000000000E-02   3.00000000000000E-02   0.00000000000000E+00   0.00000000000000E+00
      4.10659151790337E-06   1.88001035173486E-20   4.10659151790339E-06   1.14752022316361E-15   3.00000000000000E+00
      3.00000000000000E+00   0.00000000000000E+00   0.00000000000000E+00   0.00000000000000E+00   0.00000000000000E+00
      0.00000000000000E+00   2.03657544727979E-15
      2.33333333333333E-02
      0.00000000000000E+00   0.00000000000000E+00   0.00000000000000E+00   0.00000000000000E+00   9.17453684925129E-17
     -7.39493473296240E-17   1.77960211628889E-17  -4.32754268458629E-15   0.00000000000000E+00   0.00000000000000E+00
      0.00000000000000E+00   0.00000000000000E+00  -8.24918535727286E-06  -6.97847608261167E-25  -8.24918535727286E-06
      1.11562033041620E-15   7.00000000000000E-02   7.00000000000000E-02   0.00000000000000E+00   0.00000000000000E+00
      8.24918535725504E-06   2.53659590904884E-20   8.24918535725506E-06   1.18957087691746E-15   3.00000000000000E+00
      3.00000000000000E+00   0.00000000000000E+00   0.00000000000000E+00   0.00000000000000E+00   0.00000000000000E+00
      0.00000000000000E+00   2.02235147725264E-15
      4.24444444444445E-02
      0.00000000000000E+00   0.00000000000000E+00   0.00000000000000E+00   0.00000000000000E+00  -8.54725271310432E-19
     -1.18257219592732E-16  -1.19111944864042E-16  -4.36849033646724E-15   0.00000000000000E+00   0.00000000000000E+00
      0.00000000000000E+00   0.00000000000000E+00  -1.19751326577596E-05  -1.01381077117050E-24  -1.19751326577596E-05
      1.11556065102991E-15   1.27333333333333E-01   1.27333333333333E-01   0.00000000000000E+00   0.00000000000000E+00
      1.19751326578788E-05   2.06908102410279E-21   1.19751326578788E-05   1.24924892461434E-15   3.00000000000000E+00
      3.00000000000000E+00   0.00000000000000E+00   0.00000000000000E+00   0.00000000000000E+00   0.00000000000000E+00
      0.00000000000000E+00   2.00368076082299E-15
      6.74444444444444E-02
      0.00000000000000E+00   0.00000000000000E+00   0.00000000000000E+00   0.00000000000000E+00   3.55804322275672E-20
     -1.74297992007694E-16  -1.74262411575467E-16  -4.42486173996569E-15   0.00000000000000E+00   0.00000000000000E+00
      0.00000000000000E+00   0.00000000000000E+00  -1.41540435559904E-05  -1.20141490993595E-24  -1.41540435559904E-05
      1.11552489196294E-15   2.02333333333333E-01   2.02333333333333E-01   0.00000000000000E+00   0.00000000000000E+00
      1.41540435561646E-05   2.77721727066262E-20   1.41540435561646E-05   1.32632349799295E-15   3.00000000000000E+00
      3.00000000000000E+00   0.00000000000000E+00   0.00000000000000E+00   0.00000000000000E+00   0.00000000000000E+00
      0.00000000000000E+00   1.98301335000980E-15
      9.24444444444444E-02
      0.00000000000000E+00   0.00000000000000E+00   0.00000000000000E+00   0.00000000000000E+00  -2.72273703984356E-18
     -2.43423705568627E-16  -2.46146442608471E-16  -4.48401601456891E-15   0.00000000000000E+00   0.00000000000000E+00
      0.00000000000000E+00   0.00000000000000E+00  -1.49116922986055E-05  -1.26237870076104E-24  -1.49116922986055E-05
      1.11551229520725E-15   2.77333333333333E-01   2.77333333333333E-01   0.00000000000000E+00   0.00000000000000E+00
      1.49116922988516E-05   2.84430142747232E-20   1.49116922988517E-05   1.40238752674986E-15   3.00000000000000E+00
      3.00000000000000E+00   0.00000000000000E+00   0.00000000000000E+00   0.00000000000000E+00   0.00000000000000E+00
      0.00000000000000E+00   1.96611619261179E-15
      1.17444444444444E-01
      0.00000000000000E+00   0.00000000000000E+00   0.00000000000000E+00   0.00000000000000E+00  -2.87388202834535E-18
     -3.33605304131895E-16  -3.36479186160241E-16  -4.54441172479627E-15   0.00000000000000E+00   0.00000000000000E+00
      0.00000000000000E+00   0.00000000000000E+00  -1.52785428005577E-05  -1.29521595625942E-24  -1.52785428005577E-05
      1.11550616410700E-15   3.52333333333333E-01   3.52333333333333E-01   0.00000000000000E+00   0.00000000000000E+00
      1.52785428008941E-05   2.84979042810577E-20   1.52785428008942E-05   1.47755099867964E-15   3.00000000000000E+00
      3.00000000000000E+00   0.00000000000000E+00   0.00000000000000E+00   0.00000000000000E+00   0.00000000000000E+00
      0.00000000000000E+00   1.95135456200964E-15
      1.42444444444444E-01
      0.00000000000000E+00   0.00000000000000E+00   0.00000000000000E+00   0.00000000000000E+00   7.68982178570073E-19
     -4.38924620505974E-16  -4.38155638327404E-16  -4.60524391878213E-15   0.00000000000000E+00   0.00000000000000E+00
      0.00000000000000E+00   0.00000000000000E+00  -1.55252329732071E-05  -1.31543841442238E-24  -1.55252329732071E-05
      1.11550202929589E-15   4.27333333333333E-01   4.27333333333333E-01   0.00000000000000E+00   0.00000000000000E+00
      1.55252329736452E-05   2.85066228630184E-20   1.55252329736453E-05   1.55187086939353E-15   3.00000000000000E+00
      3.00000000000000E+00   0.00000000000000E+00   0.00000000000000E+00   0.00000000000000E+00   0.00000000000000E+00
      0.00000000000000E+00   1.93787102009270E-15
      1.67444444444444E-01
      0.00000000000000E+00   0.00000000000000E+00   0.00000000000000E+00   0.00000000000000E+00  -1.12225215636548E-18
     -5.50653404592464E-16  -5.51775656748830E-16  -4.66602564917612E-15   0.00000000000000E+00   0.00000000000000E+00
      0.00000000000000E+00   0.00000000000000E+00  -1.57159126781201E-05  -1.33054473313044E-24  -1.57159126781201E-05
      1.11549882662431E-15   5.02333333333333E-01   5.02333333333333E-01   0.00000000000000E+00   0.00000000000000E+00
      1.57159126786719E-05   2.85042326118132E-20   1.57159126786719E-05   1.62528838214757E-15   3.00000000000000E+00
      3.00000000000000E+00   0.00000000000000E+00   0.00000000000000E+00   0.00000000000000E+00   0.00000000000000E+00
      0.00000000000000E+00   1.92523844040424E-15
      1.92444444444444E-01
      0.00000000000000E+00   0.00000000000000E+00   0.00000000000000E+00   0.00000000000000E+00  -1.48924746862907E-18
     -6.75084808806183E-16  -6.76574056274812E-16  -4.72633507602110E-15   0.00000000000000E+00   0.00000000000000E+00
      0.00000000000000E+00   0.00000000000000E+00  -1.58756777981007E-05  -1.34520156873671E-24  -1.58756777981007E-05
      1.11549613868044E-15   5.77333333333333E-01   5.77333333333333E-01   0.00000000000000E+00   0.00000000000000E+00
      1.58756777987772E-05   2.85053724651156E-20   1.58756777987773E-05   1.69763210125114E-15   3.00000000000000E+00
      3.00000000000000E+00   0.00000000000000E+00   0.00000000000000E+00   0.00000000000000E+00   0.00000000000000E+00
      0.00000000000000E+00   1.91320683608952E-15
      2.17444444444444E-01
      0.00000000000000E+00   0.00000000000000E+00   0.00000000000000E+00   0.00000000000000E+00  -8.27826689378779E-19
     -8.04798467211157E-16  -8.05626293900536E-16  -4.78571880788937E-15   0.00000000000000E+00   0.00000000000000E+00
      0.00000000000000E+00   0.00000000000000E+00  -1.60158691320624E-05  -1.35627255430053E-24  -1.60158691320624E-05
      1.11549377663209E-15   6.52333333333333E-01   6.52333333333333E-01   0.00000000000000E+00   0.00000000000000E+00
      1.60158691328680E-05   2.85090064377807E-20   1.60158691328680E-05   1.76860359491967E-15   3.00000000000000E+00
      3.00000000000000E+00   0.00000000000000E+00   0.00000000000000E+00   0.00000000000000E+00   0.00000000000000E+00
      0.00000000000000E+00   1.90162143633761E-15
      2.42444444444444E-01
      0.00000000000000E+00   0.00000000000000E+00   0.00000000000000E+00   0.00000000000000E+00   1.68656381139436E-18
     -8.95246346216222E-16  -8.93559782404828E-16  -4.84366257647858E-15   0.00000000000000E+00   0.00000000000000E+00
      0.00000000000000E+00   0.00000000000000E+00  -1.61436104703627E-05  -1.36837490629020E-24  -1.61436104703627E-05
      1.11549162154582E-15   7.27333333333333E-01   7.27333333333333E-01   0.00000000000000E+00   0.00000000000000E+00
      1.61436104712562E-05   2.85136506415606E-20   1.61436104712562E-05   1.83782648545456E-15   3.00000000000000E+00
      3.00000000000000E+00   0.00000000000000E+00   0.00000000000000E+00   0.00000000000000E+00   0.00000000000000E+00
      0.00000000000000E+00   1.89034446947820E-15
      2.67444444444444E-01
      0.00000000000000E+00   0.00000000000000E+00   0.00000000000000E+00   0.00000000000000E+00  -2.61923001463123E-18
     -9.41084691884834E-16  -9.43703921899465E-16  -4.89985142089610E-15   0.00000000000000E+00   0.00000000000000E+00
      0.00000000000000E+00   0.00000000000000E+00  -1.62623004429288E-05  -1.37773752145921E-24  -1.62623004429288E-05
      1.11548961674910E-15   8.02333333333333E-01   8.02333333333333E-01   0.00000000000000E+00   0.00000000000000E+00
      1.62623004438725E-05   2.85185311715275E-20   1.62623004438726E-05   1.90504345702205E-15   3.00000000000000E+00
      3.00000000000000E+00   0.00000000000000E+00   0.00000000000000E+00   0.00000000000000E+00   0.00000000000000E+00
      0.00000000000000E+00   1.87931834712495E-15
      2.92444444444444E-01
      0.00000000000000E+00   0.00000000000000E+00   0.00000000000000E+00   0.00000000000000E+00   1.96111431367231E-18
     -9.62513020960373E-16  -9.60551906646700E-16  -4.95435826839098E-15   0.00000000000000E+00   0.00000000000000E+00
      0.00000000000000E+00   0.00000000000000E+00  -1.63735554101019E-05  -1.38615428303097E-24  -1.63735554101019E-05
      1.11548773541278E-15   8.77333333333333E-01   8.77333333333333E-01   0.00000000000000E+00   0.00000000000000E+00
      1.63735554110624E-05   2.85233471015132E-20   1.63735554110625E-05   1.97033702976165E-15   3.00000000000000E+00
      3.00000000000000E+00   0.00000000000000E+00   0.00000000000000E+00   0.00000000000000E+00   0.00000000000000E+00
      0.00000000000000E+00   1.86853350321655E-15
      3.17444444444444E-01
      0.00000000000000E+00   0.00000000000000E+00   0.00000000000000E+00   0.00000000000000E+00  -2.23748130524630E-18
     -9.75000484702491E-16  -9.77237966007737E-16  -5.00767843878401E-15   0.00000000000000E+00   0.00000000000000E+00
      0.00000000000000E+00   0.00000000000000E+00  -1.64781023768887E-05  -1.39759899877734E-24  -1.64781023768887E-05
      1.11548596562437E-15   9.52333333333333E-01   9.52333333333333E-01   0.00000000000000E+00   0.00000000000000E+00
      1.64781023778659E-05   2.85280407695638E-20   1.64781023778659E-05   2.03418068883790E-15   3.00000000000000E+00
      3.00000000000000E+00   0.00000000000000E+00   0.00000000000000E+00   0.00000000000000E+00   0.00000000000000E+00
      0.00000000000000E+00   1.85801178432174E-15
      3.42444444444444E-01
      0.00000000000000E+00   0.00000000000000E+00   0.00000000000000E+00   0.00000000000000E+00   6.15422995209717E-19
     -9.87136449835248E-16  -9.86521026840038E-16  -5.06045842194997E-15   0.00000000000000E+00   0.00000000000000E+00
      0.00000000000000E+00   0.00000000000000E+00  -1.65764032616852E-05  -1.40267109836031E-24  -1.65764032616852E-05
      1.11548429989466E-15   1.02733333333333E+00   1.02733333333333E+00   0.00000000000000E+00   0.00000000000000E+00
      1.65764032626717E-05   2.85326392177038E-20   1.65764032626717E-05   2.09719125095659E-15   3.00000000000000E+00
      3.00000000000000E+00   0.00000000000000E+00   0.00000000000000E+00   0.00000000000000E+00   0.00000000000000E+00
      0.00000000000000E+00   1.84778287109873E-15
      3.67444444444445E-01
      0.00000000000000E+00   0.00000000000000E+00   0.00000000000000E+00   0.00000000000000E+00   9.41933004547251E-20
     -1.00178766147826E-15  -1.00169346817781E-15  -5.11320142791448E-15   0.00000000000000E+00   0.00000000000000E+00
      0.00000000000000E+00   0.00000000000000E+00  -1.66690696708875E-05  -1.41273583430214E-24  -1.66690696708875E-05
      1.11548272814669E-15   1.10233333333333E+00   1.10233333333333E+00   0.00000000000000E+00   0.00000000000000E+00
      1.66690696718891E-05   2.85371685658260E-20   1.66690696718891E-05   2.15986207931450E-15   3.00000000000000E+00
      3.00000000000000E+00   0.00000000000000E+00   0.00000000000000E+00   0.00000000000000E+00   0.00000000000000E+00
      0.00000000000000E+00   1.83785662045330E-15
      3.92444444444445E-01
      0.00000000000000E+00   0.00000000000000E+00   0.00000000000000E+00   0.00000000000000E+00   1.07962391045278E-19
     -1.01470505892321E-15  -1.01459709653216E-15  -5.16618422403278E-15   0.00000000000000E+00   0.00000000000000E+00
      0.00000000000000E+00   0.00000000000000E+00  -1.67569278435447E-05  -1.41916694965194E-24  -1.67569278435447E-05
      1.11548123660543E-15   1.17733333333333E+00   1.17733333333333E+00   0.00000000000000E+00   0.00000000000000E+00
      1.67569278445593E-05   2.85416587329331E-20   1.67569278445593E-05   2.22248905630231E-15   3.00000000000000E+00
      3.00000000000000E+00   0.00000000000000E+00   0.00000000000000E+00   0.00000000000000E+00   0.00000000000000E+00
      0.00000000000000E+00   1.82821393112504E-15
      4.17444444444445E-01
      0.00000000000000E+00   0.00000000000000E+00   0.00000000000000E+00   0.00000000000000E+00  -2.41137920135460E-18
     -1.02350947847621E-15  -1.02592085767757E-15  -5.21952083718427E-15   0.00000000000000E+00   0.00000000000000E+00
      0.00000000000000E+00   0.00000000000000E+00  -1.68407568096646E-05  -1.42634784774240E-24  -1.68407568096646E-05
      1.11547981223796E-15   1.25233333333333E+00   1.25233333333333E+00   0.00000000000000E+00   0.00000000000000E+00
      1.68407568106905E-05   2.85461769757208E-20   1.68407568106905E-05   2.28521819514062E-15   3.00000000000000E+00
      3.00000000000000E+00   0.00000000000000E+00   0.00000000000000E+00   0.00000000000000E+00   0.00000000000000E+00
      0.00000000000000E+00   1.81882282980568E-15
      4.42444444444445E-01
      0.00000000000000E+00   0.00000000000000E+00   0.00000000000000E+00   0.00000000000000E+00  -2.04991514673778E-19
     -1.03114381378988E-15  -1.03134880530455E-15  -5.27318372575153E-15   0.00000000000000E+00   0.00000000000000E+00
      0.00000000000000E+00   0.00000000000000E+00  -1.69213508740468E-05  -1.43618892147510E-24  -1.69213508740468E-05
      1.11547844169913E-15   1.32733333333333E+00   1.32733333333333E+00   0.00000000000000E+00   0.00000000000000E+00
      1.69213508750781E-05   2.85508681923377E-20   1.69213508750782E-05   2.34807283299989E-15   3.00000000000000E+00
      3.00000000000000E+00   0.00000000000000E+00   0.00000000000000E+00   0.00000000000000E+00   0.00000000000000E+00
      0.00000000000000E+00   1.80963245105251E-15
      4.67444444444445E-01
      0.00000000000000E+00   0.00000000000000E+00   0.00000000000000E+00   0.00000000000000E+00   2.19118418652204E-19
     -1.04171916123082E-15  -1.04150004281217E-15  -5.32707032279808E-15   0.00000000000000E+00   0.00000000000000E+00
      0.00000000000000E+00   0.00000000000000E+00  -1.69993774423851E-05  -1.43924603028339E-24  -1.69993774423851E-05
      1.11547711375524E-15   1.40233333333333E+00   1.40233333333333E+00   0.00000000000000E+00   0.00000000000000E+00
      1.69993774434266E-05   2.85557306744134E-20   1.69993774434266E-05   2.41100235746136E-15   3.00000000000000E+00
      3.00000000000000E+00   0.00000000000000E+00   0.00000000000000E+00   0.00000000000000E+00   0.00000000000000E+00
      0.00000000000000E+00   1.80059085158147E-15
      4.92444444444445E-01
      0.00000000000000E+00   0.00000000000000E+00   0.00000000000000E+00   0.00000000000000E+00   5.71261493080596E-15
     -1.05733922405912E-15   4.65527570674684E-15  -5.38106370276225E-15   0.00000000000000E+00   0.00000000000000E+00
      0.00000000000000E+00   0.00000000000000E+00  -1.70753045275903E-05  -1.44587199758445E-24  -1.70753045275903E-05
      1.11547582053102E-15   1.47733333333333E+00   1.47733333333333E+00   0.00000000000000E+00   0.00000000000000E+00
      1.70753045229350E-05   2.85605232708504E-20   1.70753045229350E-05   2.47392939580091E-15   3.00000000000000E+00
      3.00000000000000E+00   0.00000000000000E+00   0.00000000000000E+00   0.00000000000000E+00   0.00000000000000E+00
      0.00000000000000E+00   1.79165848643031E-15
      5.17444444444445E-01
      0.00000000000000E+00   0.00000000000000E+00   0.00000000000000E+00   0.00000000000000E+00   5.11859382082780E-15
     -1.07494241430248E-15   4.04365140652532E-15  -5.43505900545873E-15   0.00000000000000E+00   0.00000000000000E+00
      0.00000000000000E+00   0.00000000000000E+00  -1.71494245066323E-05  -1.45357140301025E-24  -1.71494245066323E-05
      1.11547455711952E-15   1.55233333333333E+00   1.55233333333333E+00   0.00000000000000E+00   0.00000000000000E+00
      1.71494245025886E-05   2.85651443143991E-20   1.71494245025886E-05   2.53677399504220E-15   3.00000000000000E+00
      3.00000000000000E+00   0.00000000000000E+00   0.00000000000000E+00   0.00000000000000E+00   0.00000000000000E+00
      0.00000000000000E+00   1.78281045329701E-15
      5.42444444444445E-01
      0.00000000000000E+00   0.00000000000000E+00   0.00000000000000E+00   0.00000000000000E+00   1.54558338839638E-14
     -1.09112262586558E-15   1.43647112580982E-14  -5.48897301782011E-15   0.00000000000000E+00   0.00000000000000E+00
      0.00000000000000E+00   0.00000000000000E+00  -1.72219139218200E-05  -1.46015962112461E-24  -1.72219139218200E-05
      1.11547332057404E-15   1.62733333333333E+00   1.62733333333333E+00   0.00000000000000E+00   0.00000000000000E+00
      1.72219139074553E-05   2.85695934240600E-20   1.72219139074553E-05   2.59946622674192E-15   3.00000000000000E+00
      3.00000000000000E+00   0.00000000000000E+00   0.00000000000000E+00   0.00000000000000E+00   0.00000000000000E+00
      0.00000000000000E+00   1.77403347050415E-15
      5.67444444444445E-01
      0.00000000000000E+00   0.00000000000000E+00   0.00000000000000E+00   0.00000000000000E+00   7.11972986812347E-15
     -1.10830693709228E-15   6.01142293103119E-15  -5.54273474826000E-15   0.00000000000000E+00   0.00000000000000E+00
      0.00000000000000E+00   0.00000000000000E+00  -1.72928813831420E-05  -1.46401008274465E-24  -1.72928813831420E-05
      1.11547210909806E-15   1.70233333333333E+00   1.70233333333333E+00   0.00000000000000E+00   0.00000000000000E+00
      1.72928813771306E-05   2.85738703486340E-20   1.72928813771306E-05   2.66194088568950E-15   3.00000000000000E+00
      3.00000000000000E+00   0.00000000000000E+00   0.00000000000000E+00   0.00000000000000E+00   0.00000000000000E+00
      0.00000000000000E+00   1.76532175347244E-15
      5.92444444444445E-01
      0.00000000000000E+00   0.00000000000000E+00   0.00000000000000E+00   0.00000000000000E+00   5.33434073191068E-16
     -1.13399253412965E-15  -6.00558460938578E-16  -5.59627659518360E-15   0.00000000000000E+00   0.00000000000000E+00
      0.00000000000000E+00   0.00000000000000E+00  -1.73623798245252E-05  -1.47031598717250E-24  -1.73623798245252E-05
      1.11547092184022E-15   1.77733333333333E+00   1.77733333333333E+00   0.00000000000000E+00   0.00000000000000E+00
      1.73623798251258E-05   2.85779968145791E-20   1.73623798251258E-05   2.72413009638893E-15   3.00000000000000E+00
      3.00000000000000E+00   0.00000000000000E+00   0.00000000000000E+00   0.00000000000000E+00   0.00000000000000E+00
      0.00000000000000E+00   1.75667557695443E-15
      6.17444444444445E-01
      0.00000000000000E+00   0.00000000000000E+00   0.00000000000000E+00   0.00000000000000E+00   1.67391232543164E-18
     -1.17842793600630E-15  -1.17675402368086E-15  -5.64953793247920E-15   0.00000000000000E+00   0.00000000000000E+00
      0.00000000000000E+00   0.00000000000000E+00  -1.74304195743681E-05  -1.47818462515321E-24  -1.74304195743681E-05
      1.11546975867446E-15   1.85233333333333E+00   1.85233333333333E+00   0.00000000000000E+00   0.00000000000000E+00
      1.74304195755448E-05   2.85819833459273E-20   1.74304195755448E-05   2.78596805102266E-15   3.00000000000000E+00
      3.00000000000000E+00   0.00000000000000E+00   0.00000000000000E+00   0.00000000000000E+00   0.00000000000000E+00
      0.00000000000000E+00   1.74810012278206E-15
      6.42444444444445E-01
      0.00000000000000E+00   0.00000000000000E+00   0.00000000000000E+00   0.00000000000000E+00  -2.42603713116097E-18
     -1.24541912367785E-15  -1.24784516080901E-15  -5.70246574372949E-15   0.00000000000000E+00   0.00000000000000E+00
      0.00000000000000E+00   0.00000000000000E+00  -1.74969938889222E-05  -1.48481474848091E-24  -1.74969938889222E-05
      1.11546861976564E-15   1.92733333333333E+00   1.92733333333333E+00   0.00000000000000E+00   0.00000000000000E+00
      1.74969938901700E-05   2.85858380919096E-20   1.74969938901701E-05   2.84739436366131E-15   3.00000000000000E+00
      3.00000000000000E+00   0.00000000000000E+00   0.00000000000000E+00   0.00000000000000E+00   0.00000000000000E+00
      0.00000000000000E+00   1.73960276030254E-15
      6.67444444444445E-01
      0.00000000000000E+00   0.00000000000000E+00   0.00000000000000E+00   0.00000000000000E+00  -1.23977909522812E-18
     -1.31949728393065E-15  -1.32073706302588E-15  -5.75500725607170E-15   0.00000000000000E+00   0.00000000000000E+00
      0.00000000000000E+00   0.00000000000000E+00  -1.75621108861554E-05  -1.48856492658517E-24  -1.75621108861554E-05
      1.11546750502368E-15   2.00233333333333E+00   2.00233333333333E+00   0.00000000000000E+00   0.00000000000000E+00
      1.75621108874761E-05   2.85895680496610E-20   1.75621108874761E-05   2.90835086743112E-15   3.00000000000000E+00
      3.00000000000000E+00   0.00000000000000E+00   0.00000000000000E+00   0.00000000000000E+00   0.00000000000000E+00
      0.00000000000000E+00   1.73118888361690E-15
      6.92444444444445E-01
      0.00000000000000E+00   0.00000000000000E+00   0.00000000000000E+00   0.00000000000000E+00   1.41415632023134E-18
     -1.37889752041091E-15  -1.37748336409068E-15  -5.80710462477432E-15   0.00000000000000E+00   0.00000000000000E+00
      0.00000000000000E+00   0.00000000000000E+00  -1.76258272146991E-05  -1.49432423921868E-24  -1.76258272146991E-05
      1.11546641352576E-15   2.07733333333333E+00   2.07733333333333E+00   0.00000000000000E+00   0.00000000000000E+00
      1.76258272160766E-05   2.85931710535309E-20   1.76258272160766E-05   2.96878063313416E-15   3.00000000000000E+00
      3.00000000000000E+00   0.00000000000000E+00   0.00000000000000E+00   0.00000000000000E+00   0.00000000000000E+00
      0.00000000000000E+00   1.72285757811441E-15
      7.17444444444445E-01
      0.00000000000000E+00   0.00000000000000E+00   0.00000000000000E+00   0.00000000000000E+00   3.49821524592253E-18
     -1.41786626948062E-15  -1.41436805423470E-15  -5.85869217449369E-15   0.00000000000000E+00   0.00000000000000E+00
      0.00000000000000E+00   0.00000000000000E+00  -1.76882723570578E-05  -1.49864073540388E-24  -1.76882723570578E-05
      1.11546534309679E-15   2.15233333333333E+00   2.15233333333333E+00   0.00000000000000E+00   0.00000000000000E+00
      1.76882723584722E-05   2.85966551565190E-20   1.76882723584722E-05   3.02862840104297E-15   3.00000000000000E+00
      3.00000000000000E+00   0.00000000000000E+00   0.00000000000000E+00   0.00000000000000E+00   0.00000000000000E+00
      0.00000000000000E+00   1.71459843035392E-15
      7.42444444444445E-01
      0.00000000000000E+00   0.00000000000000E+00   0.00000000000000E+00   0.00000000000000E+00   2.18907836643098E-18
     -1.44102492422833E-15  -1.43883584586190E-15  -5.90969344635397E-15   0.00000000000000E+00   0.00000000000000E+00
      0.00000000000000E+00   0.00000000000000E+00  -1.77496317091915E-05  -1.50464620436143E-24  -1.77496317091915E-05
      1.11546429059590E-15   2.22733333333333E+00   2.22733333333333E+00   0.00000000000000E+00   0.00000000000000E+00
      1.77496317106303E-05   2.86000204346700E-20   1.77496317106304E-05   3.08783566386496E-15   3.00000000000000E+00
      3.00000000000000E+00   0.00000000000000E+00   0.00000000000000E+00   0.00000000000000E+00   0.00000000000000E+00
      0.00000000000000E+00   1.70639349189311E-15
      7.67444444444445E-01
      0.00000000000000E+00   0.00000000000000E+00   0.00000000000000E+00   0.00000000000000E+00  -7.37137737987366E-19
     -1.45412415073311E-15  -1.45486128847109E-15  -5.96001620098879E-15   0.00000000000000E+00   0.00000000000000E+00
      0.00000000000000E+00   0.00000000000000E+00  -1.78100992389067E-05  -1.50776718103364E-24  -1.78100992389067E-05
      1.11546325272636E-15   2.30233333333333E+00   2.30233333333333E+00   0.00000000000000E+00   0.00000000000000E+00
      1.78100992403615E-05   2.86032660072834E-20   1.78100992403616E-05   3.14632992701917E-15   3.00000000000000E+00
      3.00000000000000E+00   0.00000000000000E+00   0.00000000000000E+00   0.00000000000000E+00   0.00000000000000E+00
      0.00000000000000E+00   1.69822302124325E-15
      7.92444444444445E-01
      0.00000000000000E+00   0.00000000000000E+00   0.00000000000000E+00   0.00000000000000E+00   5.84887062086598E-19
     -1.46196715118545E-15  -1.46138226412336E-15  -6.00954585898021E-15   0.00000000000000E+00   0.00000000000000E+00
      0.00000000000000E+00   0.00000000000000E+00  -1.78698325411026E-05  -1.51412108531136E-24  -1.78698325411026E-05
      1.11546222680754E-15   2.37733333333333E+00   2.37733333333333E+00   0.00000000000000E+00   0.00000000000000E+00
      1.78698325425639E-05   2.86063856999139E-20   1.78698325425640E-05   3.20401237033054E-15   3.00000000000000E+00
      3.00000000000000E+00   0.00000000000000E+00   0.00000000000000E+00   0.00000000000000E+00   0.00000000000000E+00
      0.00000000000000E+00   1.69007126184212E-15
      8.17444444444445E-01
      0.00000000000000E+00   0.00000000000000E+00   0.00000000000000E+00   0.00000000000000E+00   3.91104149559429E-20
     -1.46772823946932E-15  -1.46768912905437E-15  -6.05815174179587E-15   0.00000000000000E+00   0.00000000000000E+00
      0.00000000000000E+00   0.00000000000000E+00  -1.79289456903404E-05  -1.52113468012228E-24  -1.79289456903404E-05
      1.11546121089998E-15   2.45233333333333E+00   2.45233333333333E+00   0.00000000000000E+00   0.00000000000000E+00
      1.79289456918081E-05   2.86093805172422E-20   1.79289456918081E-05   3.26076316317386E-15   3.00000000000000E+00
      3.00000000000000E+00   0.00000000000000E+00   0.00000000000000E+00   0.00000000000000E+00   0.00000000000000E+00
      0.00000000000000E+00   1.68192736772203E-15
      8.42444444444445E-01
      0.00000000000000E+00   0.00000000000000E+00   0.00000000000000E+00   0.00000000000000E+00  -1.04522338386568E-18
     -1.47322729019583E-15  -1.47427251357969E-15  -6.10572158955380E-15   0.00000000000000E+00   0.00000000000000E+00
      0.00000000000000E+00   0.00000000000000E+00  -1.79875151196762E-05  -1.52159354200625E-24  -1.79875151196762E-05
      1.11546020370668E-15   2.52733333333333E+00   2.52733333333333E+00   0.00000000000000E+00   0.00000000000000E+00
      1.79875151211504E-05   2.86122463033493E-20   1.79875151211504E-05   3.31647649213383E-15   3.00000000000000E+00
      3.00000000000000E+00   0.00000000000000E+00   0.00000000000000E+00   0.00000000000000E+00   0.00000000000000E+00
      0.00000000000000E+00   1.67378489371329E-15
      8.67444444444445E-01
      0.00000000000000E+00   0.00000000000000E+00   0.00000000000000E+00   0.00000000000000E+00  -3.62474061675892E-19