DF-ISE text

Info {
  version   = 1.0
  type      = xyplot
  datasets  = [
    "time"
    "substrate OuterVoltage" "substrate InnerVoltage" "substrate QuasiFermiPotential" "substrate DisplacementCurrent" "substrate eCurrent"
    "substrate hCurrent" "substrate TotalCurrent" "substrate Charge" "source OuterVoltage" "source InnerVoltage"
    "source QuasiFermiPotential" "source DisplacementCurrent" "source eCurrent" "source hCurrent" "source TotalCurrent"
    "source Charge" "drain OuterVoltage" "drain InnerVoltage" "drain QuasiFermiPotential" "drain DisplacementCurrent"
    "drain eCurrent" "drain hCurrent" "drain TotalCurrent" "drain Charge" "gate OuterVoltage"
    "gate InnerVoltage" "gate QuasiFermiPotential" "gate DisplacementCurrent" "gate eCurrent" "gate hCurrent"
    "gate TotalCurrent" "gate Charge" ]
  functions = [
    Time
    OuterVoltage InnerVoltage QuasiFermiPotential DisplacementCurrent eCurrent
    hCurrent TotalCurrent Charge OuterVoltage InnerVoltage
    QuasiFermiPotential DisplacementCurrent eCurrent hCurrent TotalCurrent
    Charge OuterVoltage InnerVoltage QuasiFermiPotential DisplacementCurrent
    eCurrent hCurrent TotalCurrent Charge OuterVoltage
    InnerVoltage QuasiFermiPotential DisplacementCurrent eCurrent hCurrent
    TotalCurrent Charge ]
}

Data {
      0.00000000000000E+00
      0.00000000000000E+00   0.00000000000000E+00   0.00000000000000E+00   0.00000000000000E+00   3.02932719936716E-19
     -3.85112053321650E-28   3.02932719551604E-19  -1.84738196791906E-15   0.00000000000000E+00   0.00000000000000E+00
      0.00000000000000E+00   0.00000000000000E+00  -1.74997299718427E-19  -5.14996435668283E-29  -1.74997299769927E-19
      7.80899324874104E-16   0.00000000000000E+00   0.00000000000000E+00   0.00000000000000E+00   0.00000000000000E+00
     -1.27935420218422E-19   4.36744299781216E-28  -1.27935419781677E-19   7.80899324874104E-16   1.00000000000000E+00
      1.00000000000000E+00   0.00000000000000E+00   0.00000000000000E+00   0.00000000000000E+00   0.00000000000000E+00
      0.00000000000000E+00   2.85583318170847E-16
      1.00000000000000E-02
      0.00000000000000E+00   0.00000000000000E+00   0.00000000000000E+00   0.00000000000000E+00   1.59533501363195E-16
     -2.23947419290754E-17   1.37138759434120E-16  -1.86568118479599E-15   0.00000000000000E+00   0.00000000000000E+00
      0.00000000000000E+00   0.00000000000000E+00  -7.47916643316122E-14  -3.53463359708458E-29  -7.47916643316122E-14
      7.80785422470251E-16   3.00000000000000E-02   3.00000000000000E-02   0.00000000000000E+00   0.00000000000000E+00
      7.46545173526731E-14   8.21950507126382E-21   7.46545255721781E-14   8.03940195721540E-16   1.00000000000000E+00
      1.00000000000000E+00   0.00000000000000E+00   0.00000000000000E+00   0.00000000000000E+00   0.00000000000000E+00
      0.00000000000000E+00   2.80955566604203E-16
      2.33333333333333E-02
      0.00000000000000E+00   0.00000000000000E+00   0.00000000000000E+00   0.00000000000000E+00  -9.50474150225400E-20
     -3.90982610643660E-17  -3.91933084793885E-17  -1.88987533688351E-15   0.00000000000000E+00   0.00000000000000E+00
      0.00000000000000E+00   0.00000000000000E+00  -9.47208551748930E-14   3.05309913419194E-28  -9.47208551748927E-14
      7.80628501434744E-16   7.00000000000000E-02   7.00000000000000E-02   0.00000000000000E+00   0.00000000000000E+00
      9.47600401277153E-14   8.35565685231574E-21   9.47600484833721E-14   8.34466164450754E-16   1.00000000000000E+00
      1.00000000000000E+00   0.00000000000000E+00   0.00000000000000E+00   0.00000000000000E+00   0.00000000000000E+00
      0.00000000000000E+00   2.74780670998008E-16
      4.20000000000000E-02
      0.00000000000000E+00   0.00000000000000E+00   0.00000000000000E+00   0.00000000000000E+00   8.62566831059968E-20
     -5.46974270431320E-17  -5.46111703600260E-17  -1.92337933368843E-15   0.00000000000000E+00   0.00000000000000E+00
      0.00000000000000E+00   0.00000000000000E+00  -1.17114846709869E-13  -1.87903864170557E-28  -1.17114846709869E-13
      7.80398939965964E-16   1.26000000000000E-01   1.26000000000000E-01   0.00000000000000E+00   0.00000000000000E+00
      1.17169445833963E-13   1.20462663244151E-20   1.17169457880229E-13   8.76853670603995E-16   1.00000000000000E+00
      1.00000000000000E+00   0.00000000000000E+00   0.00000000000000E+00   0.00000000000000E+00   0.00000000000000E+00
      0.00000000000000E+00   2.66126723118475E-16
      6.70000000000000E-02
      0.00000000000000E+00   0.00000000000000E+00   0.00000000000000E+00   0.00000000000000E+00  -1.67314124970605E-19
     -7.69947223402035E-17  -7.71620364651741E-17  -1.96761498595019E-15   0.00000000000000E+00   0.00000000000000E+00
      0.00000000000000E+00   0.00000000000000E+00  -1.73385116468618E-13   2.84660306205870E-28  -1.73385116468618E-13
      7.80073056197487E-16   2.01000000000000E-01   2.01000000000000E-01   0.00000000000000E+00   0.00000000000000E+00
      1.73462263955525E-13   1.45495575082135E-20   1.73462278505083E-13   9.33022210434620E-16   1.00000000000000E+00
      1.00000000000000E+00   0.00000000000000E+00   0.00000000000000E+00   0.00000000000000E+00   0.00000000000000E+00
      0.00000000000000E+00   2.54519719318082E-16
      9.20000000000000E-02
      0.00000000000000E+00   0.00000000000000E+00   0.00000000000000E+00   0.00000000000000E+00  -7.02323069409042E-19
     -1.07118462475950E-16  -1.07820785545360E-16  -2.01114404742562E-15   0.00000000000000E+00   0.00000000000000E+00
      0.00000000000000E+00   0.00000000000000E+00  -2.45542749632635E-13  -2.39445844552804E-28  -2.45542749632635E-13
      7.79725590860208E-16   2.76000000000000E-01   2.76000000000000E-01   0.00000000000000E+00   0.00000000000000E+00
      2.45650553160170E-13   1.72580100155095E-20   2.45650570418180E-13   9.88525095601463E-16   1.00000000000000E+00
      1.00000000000000E+00   0.00000000000000E+00   0.00000000000000E+00   0.00000000000000E+00   0.00000000000000E+00
      0.00000000000000E+00   2.42893360963944E-16
      1.17000000000000E-01
      0.00000000000000E+00   0.00000000000000E+00   0.00000000000000E+00   0.00000000000000E+00  -9.69867185064439E-19
     -1.44027738667313E-16  -1.44997605852377E-16  -2.05396515440243E-15   0.00000000000000E+00   0.00000000000000E+00
      0.00000000000000E+00   0.00000000000000E+00  -3.41944452030399E-13   4.63010081139276E-29  -3.41944452030399E-13
      7.79356134698911E-16   3.51000000000000E-01   3.51000000000000E-01   0.00000000000000E+00   0.00000000000000E+00
      3.42089431662971E-13   1.79732809045750E-20   3.42089449636252E-13   1.04336117889782E-15   1.00000000000000E+00
      1.00000000000000E+00   0.00000000000000E+00   0.00000000000000E+00   0.00000000000000E+00   0.00000000000000E+00
      0.00000000000000E+00   2.31247840805698E-16
      1.42000000000000E-01
      0.00000000000000E+00   0.00000000000000E+00   0.00000000000000E+00   0.00000000000000E+00  -9.53490619598779E-20
     -1.85614573592817E-16  -1.85709922654776E-16  -2.09605403152788E-15   0.00000000000000E+00   0.00000000000000E+00
      0.00000000000000E+00   0.00000000000000E+00  -4.77101128488886E-13  -3.14349238450941E-28  -4.77101128488887E-13
      7.78964377289962E-16   4.26000000000000E-01   4.26000000000000E-01   0.00000000000000E+00   0.00000000000000E+00
      4.77286814203962E-13   2.42075785569807E-20   4.77286838411541E-13   1.09750613835296E-15   1.00000000000000E+00
      1.00000000000000E+00   0.00000000000000E+00   0.00000000000000E+00   0.00000000000000E+00   0.00000000000000E+00
      0.00000000000000E+00   2.19583515884953E-16
      1.67000000000000E-01
      0.00000000000000E+00   0.00000000000000E+00   0.00000000000000E+00   0.00000000000000E+00   4.48495069356609E-19
     -2.34658001998932E-16  -2.34209506929576E-16  -2.13736028611007E-15   0.00000000000000E+00   0.00000000000000E+00
      0.00000000000000E+00   0.00000000000000E+00  -6.66529753208108E-13   2.01249427908024E-28  -6.66529753208108E-13
      7.78550031706118E-16   5.01000000000000E-01   5.01000000000000E-01   0.00000000000000E+00   0.00000000000000E+00
      6.66763948093668E-13   1.46213694702268E-20   6.66763962715038E-13   1.15090943552031E-15   1.00000000000000E+00
      1.00000000000000E+00   0.00000000000000E+00   0.00000000000000E+00   0.00000000000000E+00   0.00000000000000E+00
      0.00000000000000E+00   2.07900818883636E-16
      1.92000000000000E-01
      0.00000000000000E+00   0.00000000000000E+00   0.00000000000000E+00   0.00000000000000E+00  -2.94256741977182E-19
     -2.93557631049903E-16  -2.93851887791880E-16  -2.17780185490760E-15   0.00000000000000E+00   0.00000000000000E+00
      0.00000000000000E+00   0.00000000000000E+00  -9.31400753216759E-13  -1.21361847849223E-28  -9.31400753216759E-13
      7.78112740440840E-16   5.76000000000000E-01   5.76000000000000E-01   0.00000000000000E+00   0.00000000000000E+00
      9.31694590597784E-13   1.45067661166751E-20   9.31694605104551E-13   1.20348901198386E-15   1.00000000000000E+00
      1.00000000000000E+00   0.00000000000000E+00   0.00000000000000E+00   0.00000000000000E+00   0.00000000000000E+00
      0.00000000000000E+00   1.96200102482906E-16
      2.17000000000000E-01
      0.00000000000000E+00   0.00000000000000E+00   0.00000000000000E+00   0.00000000000000E+00   9.56069371737998E-19
     -3.50205570186856E-16  -3.49249500815118E-16  -2.21726891351756E-15   0.00000000000000E+00   0.00000000000000E+00
      0.00000000000000E+00   0.00000000000000E+00  -1.29938009252750E-12   3.49654206834661E-28  -1.29938009252750E-12
      7.77652034844513E-16   6.51000000000000E-01   6.51000000000000E-01   0.00000000000000E+00   0.00000000000000E+00
      1.29972932740629E-12   1.46220206766864E-20   1.29972934202831E-12   1.25513532567331E-15   1.00000000000000E+00
      1.00000000000000E+00   0.00000000000000E+00   0.00000000000000E+00   0.00000000000000E+00   0.00000000000000E+00
      0.00000000000000E+00   1.84481552999731E-16
      2.42000000000000E-01
      0.00000000000000E+00   0.00000000000000E+00   0.00000000000000E+00   0.00000000000000E+00  -3.82251718082820E-19
     -3.89757961049527E-16  -3.90140212767610E-16  -2.25565769483806E-15   0.00000000000000E+00   0.00000000000000E+00
      0.00000000000000E+00   0.00000000000000E+00  -1.80909180030830E-12   4.93816866074204E-28  -1.80909180030830E-12
      7.77167383074856E-16   7.26000000000000E-01   7.26000000000000E-01   0.00000000000000E+00   0.00000000000000E+00
      1.80948192589741E-12   1.46236559281901E-20   1.80948194052107E-12   1.30574505385641E-15   1.00000000000000E+00
      1.00000000000000E+00   0.00000000000000E+00   0.00000000000000E+00   0.00000000000000E+00   0.00000000000000E+00
      0.00000000000000E+00   1.72745257906783E-16
      2.67000000000000E-01
      0.00000000000000E+00   0.00000000000000E+00   0.00000000000000E+00   0.00000000000000E+00   6.04206751592452E-19
     -4.14656974237042E-16  -4.14052767485450E-16  -2.29294107646351E-15   0.00000000000000E+00   0.00000000000000E+00
      0.00000000000000E+00   0.00000000000000E+00  -2.51395852340206E-12  -8.95247034913920E-29  -2.51395852340206E-12
      7.76658298763687E-16   8.01000000000000E-01   8.01000000000000E-01   0.00000000000000E+00   0.00000000000000E+00
      2.51437256154403E-12   1.46255234824431E-20   2.51437257616955E-12   1.35529139925107E-15   1.00000000000000E+00
      1.00000000000000E+00   0.00000000000000E+00   0.00000000000000E+00   0.00000000000000E+00   0.00000000000000E+00
      0.00000000000000E+00   1.60991378448750E-16
      2.92000000000000E-01
      0.00000000000000E+00   0.00000000000000E+00   0.00000000000000E+00   0.00000000000000E+00  -4.90847848544428E-19
     -4.33831852525548E-16  -4.34322700374092E-16  -2.32921999622398E-15   0.00000000000000E+00   0.00000000000000E+00
      0.00000000000000E+00   0.00000000000000E+00  -3.48708237072342E-12   2.39216598447619E-28  -3.48708237072342E-12
      7.76124449612512E-16   8.76000000000000E-01   8.76000000000000E-01   0.00000000000000E+00   0.00000000000000E+00
      3.48751667879639E-12   1.46274023474581E-20   3.48751669342379E-12   1.40387522884338E-15   1.00000000000000E+00
      1.00000000000000E+00   0.00000000000000E+00   0.00000000000000E+00   0.00000000000000E+00   0.00000000000000E+00
      0.00000000000000E+00   1.49220317768093E-16
      3.17000000000000E-01
      0.00000000000000E+00   0.00000000000000E+00   0.00000000000000E+00   0.00000000000000E+00  -4.60754406214565E-19
     -4.49696805681646E-16  -4.50157560087860E-16  -2.36468136595427E-15   0.00000000000000E+00   0.00000000000000E+00
      0.00000000000000E+00   0.00000000000000E+00  -4.82832807250685E-12  -1.68814051384172E-28  -4.82832807250685E-12
      7.75565717278226E-16   9.51000000000000E-01   9.51000000000000E-01   0.00000000000000E+00   0.00000000000000E+00
      4.82877821543772E-12   1.46292099022876E-20   4.82877823006693E-12   1.45168283915575E-15   1.00000000000000E+00
      1.00000000000000E+00   0.00000000000000E+00   0.00000000000000E+00   0.00000000000000E+00   0.00000000000000E+00
      0.00000000000000E+00   1.37432809520295E-16
      3.42000000000000E-01
      0.00000000000000E+00   0.00000000000000E+00   0.00000000000000E+00   0.00000000000000E+00  -4.23757471822001E-19
     -4.61557871883540E-16  -4.61981629355362E-16  -2.39950853294331E-15   0.00000000000000E+00   0.00000000000000E+00
      0.00000000000000E+00   0.00000000000000E+00  -6.67393011539516E-12   2.09510754006471E-28  -6.67393011539516E-12
      7.74982194429017E-16   1.02600000000000E+00   1.02600000000000E+00   0.00000000000000E+00   0.00000000000000E+00
      6.67439208239360E-12   1.46309166005770E-20   6.67439209702452E-12   1.49889642226906E-15   1.00000000000000E+00
      1.00000000000000E+00   0.00000000000000E+00   0.00000000000000E+00   0.00000000000000E+00   0.00000000000000E+00
      0.00000000000000E+00   1.25629916245233E-16
      3.67000000000000E-01
      0.00000000000000E+00   0.00000000000000E+00   0.00000000000000E+00   0.00000000000000E+00   1.08523030920076E-18
     -4.70741744687412E-16  -4.69656514378211E-16  -2.43383659020717E-15   0.00000000000000E+00   0.00000000000000E+00
      0.00000000000000E+00   0.00000000000000E+00  -9.20955386332758E-12   2.93776052376043E-28  -9.20955386332758E-12
      7.74374134391432E-16   1.10100000000000E+00   1.10100000000000E+00   0.00000000000000E+00   0.00000000000000E+00
      9.21002350520941E-12   1.46325438831103E-20   9.21002351984196E-12   1.54564948858215E-15   1.00000000000000E+00
      1.00000000000000E+00   0.00000000000000E+00   0.00000000000000E+00   0.00000000000000E+00   0.00000000000000E+00
      0.00000000000000E+00   1.13812967233590E-16
      3.92000000000000E-01
      0.00000000000000E+00   0.00000000000000E+00   0.00000000000000E+00   0.00000000000000E+00   2.39967634498476E-19
     -4.78164136400492E-16  -4.77924168765993E-16  -2.46775434878579E-15   0.00000000000000E+00   0.00000000000000E+00
      0.00000000000000E+00   0.00000000000000E+00  -1.26878327310145E-11  -7.97114055815326E-29  -1.26878327310145E-11
      7.73741881019627E-16   1.17600000000000E+00   1.17600000000000E+00   0.00000000000000E+00   0.00000000000000E+00
      1.26883106405491E-11   1.46341422236896E-20   1.26883106551833E-11   1.59202899473310E-15   1.00000000000000E+00
      1.00000000000000E+00   0.00000000000000E+00   0.00000000000000E+00   0.00000000000000E+00   0.00000000000000E+00
      0.00000000000000E+00   1.01983473033067E-16
      4.17000000000000E-01
      0.00000000000000E+00   0.00000000000000E+00   0.00000000000000E+00   0.00000000000000E+00   3.94671854203458E-19
     -4.84694225298303E-16  -4.84299553444099E-16  -2.50131783511137E-15   0.00000000000000E+00   0.00000000000000E+00
      0.00000000000000E+00   0.00000000000000E+00  -1.74523077075741E-11  -2.35116390457403E-28  -1.74523077075741E-11
      7.73085803868828E-16   1.25100000000000E+00   1.25100000000000E+00   0.00000000000000E+00   0.00000000000000E+00
      1.74527919924918E-11   1.46357681377940E-20   1.74527920071276E-11   1.63808898696157E-15   1.00000000000000E+00
      1.00000000000000E+00   0.00000000000000E+00   0.00000000000000E+00   0.00000000000000E+00   0.00000000000000E+00
      0.00000000000000E+00   9.01430442809713E-17
      4.42000000000000E-01
      0.00000000000000E+00   0.00000000000000E+00   0.00000000000000E+00   0.00000000000000E+00  -3.49635367654103E-19
     -4.91752102405415E-16  -4.92101737773069E-16  -2.53456140177037E-15   0.00000000000000E+00   0.00000000000000E+00
      0.00000000000000E+00   0.00000000000000E+00  -2.39696593535080E-11  -4.50872789846444E-28  -2.39696593535080E-11
      7.72406255135833E-16   1.32600000000000E+00   1.32600000000000E+00   0.00000000000000E+00   0.00000000000000E+00
      2.39701514406083E-11   1.46374659040804E-20   2.39701514552457E-11   1.68386181430330E-15   1.00000000000000E+00
      1.00000000000000E+00   0.00000000000000E+00   0.00000000000000E+00   0.00000000000000E+00   0.00000000000000E+00
      0.00000000000000E+00   7.82933323312375E-17
      4.67000000000000E-01
      0.00000000000000E+00   0.00000000000000E+00   0.00000000000000E+00   0.00000000000000E+00   3.99329433912246E-19
     -4.99564389317078E-16  -4.99165059883166E-16  -2.56750587672341E-15   0.00000000000000E+00   0.00000000000000E+00
      0.00000000000000E+00   0.00000000000000E+00  -3.28728502147214E-11   2.75861733940502E-29  -3.28728502147214E-11
      7.71703555018742E-16   1.40100000000000E+00   1.40100000000000E+00   0.00000000000000E+00   0.00000000000000E+00
      3.28733493651421E-11   1.46392308346113E-20   3.28733493797813E-11   1.72936632152101E-15   1.00000000000000E+00
      1.00000000000000E+00   0.00000000000000E+00   0.00000000000000E+00   0.00000000000000E+00   0.00000000000000E+00
      0.00000000000000E+00   6.64360001836568E-17
      4.92000000000000E-01
      0.00000000000000E+00   0.00000000000000E+00   0.00000000000000E+00   0.00000000000000E+00  -1.84417316450527E-19
     -5.06653959917286E-16  -5.06838377233737E-16  -2.60016426277936E-15   0.00000000000000E+00   0.00000000000000E+00
      0.00000000000000E+00   0.00000000000000E+00  -4.50184782201934E-11  -3.02678020626904E-28  -4.50184782201934E-11
      7.70978001233345E-16   1.47600000000000E+00   1.47600000000000E+00   0.00000000000000E+00   0.00000000000000E+00
      4.50189850439298E-11   1.46409502839123E-20   4.50189850585707E-11   1.77461354256785E-15   1.00000000000000E+00
      1.00000000000000E+00   0.00000000000000E+00   0.00000000000000E+00   0.00000000000000E+00   0.00000000000000E+00
      0.00000000000000E+00   5.45727189781668E-17
      5.17000000000000E-01
      0.00000000000000E+00   0.00000000000000E+00   0.00000000000000E+00   0.00000000000000E+00   3.45337453004848E-19
     -5.12377773060735E-16  -5.12032435607730E-16  -2.63254508925019E-15   0.00000000000000E+00   0.00000000000000E+00
      0.00000000000000E+00   0.00000000000000E+00  -6.15625392917722E-11   1.56888843627139E-28  -6.15625392917722E-11
      7.70229888811136E-16   1.55100000000000E+00   1.55100000000000E+00   0.00000000000000E+00   0.00000000000000E+00
      6.15630513095652E-11   1.46426077995931E-20   6.15630513242078E-11   1.81961003072623E-15   1.00000000000000E+00
      1.00000000000000E+00   0.00000000000000E+00   0.00000000000000E+00   0.00000000000000E+00   0.00000000000000E+00
      0.00000000000000E+00   4.27051697128192E-17
      5.42000000000000E-01
      0.00000000000000E+00   0.00000000000000E+00   0.00000000000000E+00   0.00000000000000E+00   8.75967336945805E-19
     -5.18270755042455E-16  -5.17394787705510E-16  -2.66465394206928E-15   0.00000000000000E+00   0.00000000000000E+00
      0.00000000000000E+00   0.00000000000000E+00  -8.40599090730741E-11   1.43544534944769E-28  -8.40599090730741E-11
      7.69459523899381E-16   1.62600000000000E+00   1.62600000000000E+00   0.00000000000000E+00   0.00000000000000E+00
      8.40604264532177E-11   1.46442029151190E-20   8.40604264678619E-11   1.86435939618860E-15   1.00000000000000E+00
      1.00000000000000E+00   0.00000000000000E+00   0.00000000000000E+00   0.00000000000000E+00   0.00000000000000E+00
      0.00000000000000E+00   3.08350219812895E-17
      5.67000000000000E-01
      0.00000000000000E+00   0.00000000000000E+00   0.00000000000000E+00   0.00000000000000E+00  -2.04862904333853E-19
     -5.27188537686394E-16  -5.27393400590728E-16  -2.69649401933922E-15   0.00000000000000E+00   0.00000000000000E+00
      0.00000000000000E+00   0.00000000000000E+00  -1.14594593768689E-10  -2.51990401924939E-28  -1.14594593768689E-10
      7.68667221793544E-16   1.70100000000000E+00   1.70100000000000E+00   0.00000000000000E+00   0.00000000000000E+00
      1.14595121147444E-10   1.46457416561024E-20   1.14595121162089E-10   1.90886293034965E-15   1.00000000000000E+00
      1.00000000000000E+00   0.00000000000000E+00   0.00000000000000E+00   0.00000000000000E+00   0.00000000000000E+00
      0.00000000000000E+00   1.89638671960260E-17
      5.92000000000000E-01
      0.00000000000000E+00   0.00000000000000E+00   0.00000000000000E+00   0.00000000000000E+00  -3.84392032210509E-19
     -5.42702128888138E-16  -5.43086520920348E-16  -2.72806630204434E-15   0.00000000000000E+00   0.00000000000000E+00
      0.00000000000000E+00   0.00000000000000E+00  -1.55950025196545E-10   2.36651788678331E-28  -1.55950025196545E-10
      7.67853289543573E-16   1.77600000000000E+00   1.77600000000000E+00   0.00000000000000E+00   0.00000000000000E+00
      1.55950568268418E-10   1.46472287642178E-20   1.55950568283066E-10   1.95311991207967E-15   1.00000000000000E+00
      1.00000000000000E+00   0.00000000000000E+00   0.00000000000000E+00   0.00000000000000E+00   0.00000000000000E+00
      0.00000000000000E+00   7.09310042109232E-18
      6.17000000000000E-01
      0.00000000000000E+00   0.00000000000000E+00   0.00000000000000E+00   0.00000000000000E+00   2.32196719119493E-19
     -5.67568037324602E-16  -5.67335840605482E-16  -2.75936944765832E-15   0.00000000000000E+00   0.00000000000000E+00
      0.00000000000000E+00   0.00000000000000E+00  -2.11831678447996E-10  -4.45349835821884E-28  -2.11831678447996E-10
      7.67018001321298E-16   1.85100000000000E+00   1.85100000000000E+00   0.00000000000000E+00   0.00000000000000E+00
      2.11832245769188E-10   1.46486660450782E-20   2.11832245783837E-10   1.99712767769041E-15   1.00000000000000E+00
      1.00000000000000E+00   0.00000000000000E+00   0.00000000000000E+00   0.00000000000000E+00   0.00000000000000E+00
      0.00000000000000E+00  -4.77623135338820E-18
      6.42000000000000E-01
      0.00000000000000E+00   0.00000000000000E+00   0.00000000000000E+00   0.00000000000000E+00   1.33851583450278E-18
     -5.99278425436340E-16  -5.97939909601837E-16  -2.79039926160598E-15   0.00000000000000E+00   0.00000000000000E+00
      0.00000000000000E+00   0.00000000000000E+00  -2.87157945646253E-10   1.84514967151731E-28  -2.87157945646253E-10
      7.66161578548581E-16   1.92600000000000E+00   1.92600000000000E+00   0.00000000000000E+00   0.00000000000000E+00
      2.87158543571513E-10   1.46500545191192E-20   2.87158543586163E-10   2.04088125350112E-15   1.00000000000000E+00
      1.00000000000000E+00   0.00000000000000E+00   0.00000000000000E+00   0.00000000000000E+00   0.00000000000000E+00
      0.00000000000000E+00  -1.66435704437226E-17
      6.67000000000000E-01
      0.00000000000000E+00   0.00000000000000E+00   0.00000000000000E+00   0.00000000000000E+00   1.23281703258713E-17
     -6.29522840780364E-16  -6.17194670454492E-16  -2.82114763620513E-15   0.00000000000000E+00   0.00000000000000E+00
      0.00000000000000E+00   0.00000000000000E+00  -3.88438228419585E-10   1.29146862679620E-28  -3.88438228419585E-10
      7.65284186004687E-16   2.00100000000000E+00   2.00100000000000E+00   0.00000000000000E+00   0.00000000000000E+00
      3.88438845599604E-10   1.46513948995664E-20   3.88438845614255E-10   2.08437236981973E-15   1.00000000000000E+00
      1.00000000000000E+00   0.00000000000000E+00   0.00000000000000E+00   0.00000000000000E+00   0.00000000000000E+00
      0.00000000000000E+00  -2.85089196192915E-17
      6.92000000000000E-01
      0.00000000000000E+00   0.00000000000000E+00   0.00000000000000E+00   0.00000000000000E+00   6.48161245545644E-19
     -6.52222794392976E-16  -6.51574633147430E-16  -2.85160099499287E-15   0.00000000000000E+00   0.00000000000000E+00
      0.00000000000000E+00   0.00000000000000E+00  -5.24262687465889E-10  -1.04730628228777E-28  -5.24262687465889E-10
      7.64385947921278E-16   2.07600000000000E+00   2.07600000000000E+00   0.00000000000000E+00   0.00000000000000E+00
      5.24263339025870E-10   1.46526869630599E-20   5.24263339040523E-10   2.12758784549325E-15   1.00000000000000E+00
      1.00000000000000E+00   0.00000000000000E+00   0.00000000000000E+00   0.00000000000000E+00   0.00000000000000E+00
      0.00000000000000E+00  -4.03727984216537E-17
      7.17000000000000E-01
      0.00000000000000E+00   0.00000000000000E+00   0.00000000000000E+00   0.00000000000000E+00   9.05064673801634E-19
     -6.67095199145369E-16  -6.66190134471568E-16  -2.88173844542859E-15   0.00000000000000E+00   0.00000000000000E+00
      0.00000000000000E+00   0.00000000000000E+00  -7.05930014878311E-10   1.28662801683319E-28  -7.05930014878311E-10
      7.63466975567209E-16   2.15100000000000E+00   2.15100000000000E+00   0.00000000000000E+00   0.00000000000000E+00
      7.05930681053793E-10   1.46539283547770E-20   7.05930681068447E-10   2.17050755931046E-15   1.00000000000000E+00
      1.00000000000000E+00   0.00000000000000E+00   0.00000000000000E+00   0.00000000000000E+00   0.00000000000000E+00
      0.00000000000000E+00  -5.22360894490775E-17
      7.42000000000000E-01
      0.00000000000000E+00   0.00000000000000E+00   0.00000000000000E+00   0.00000000000000E+00   6.79611186685989E-17
     -6.77340214241443E-16  -6.09379095572844E-16  -2.91153012590674E-15   0.00000000000000E+00   0.00000000000000E+00
      0.00000000000000E+00   0.00000000000000E+00  -9.48248128062125E-10   3.67017457518336E-28  -9.48248128062125E-10
      7.62527388500649E-16   2.22600000000000E+00   2.22600000000000E+00   0.00000000000000E+00   0.00000000000000E+00
      9.48248737426566E-10   1.46551166986434E-20   9.48248737441221E-10   2.21310257022315E-15   1.00000000000000E+00
      1.00000000000000E+00   0.00000000000000E+00   0.00000000000000E+00   0.00000000000000E+00   0.00000000000000E+00
      0.00000000000000E+00  -6.40998328170573E-17
      7.67000000000000E-01
      0.00000000000000E+00   0.00000000000000E+00   0.00000000000000E+00   0.00000000000000E+00   1.52019497575272E-18
     -6.86721716633233E-16  -6.85201521657480E-16  -2.94093690240117E-15   0.00000000000000E+00   0.00000000000000E+00
      0.00000000000000E+00   0.00000000000000E+00  -1.27055253690200E-09  -2.27189826116280E-28  -1.27055253690200E-09
      7.61567314736753E-16   2.30100000000000E+00   2.30100000000000E+00   0.00000000000000E+00   0.00000000000000E+00
      1.27055322208886E-09   1.46562503180709E-20   1.27055322210352E-09   2.25533463063136E-15   1.00000000000000E+00
      1.00000000000000E+00   0.00000000000000E+00   0.00000000000000E+00   0.00000000000000E+00   0.00000000000000E+00
      0.00000000000000E+00  -7.59650429669436E-17
      7.92000000000000E-01
      0.00000000000000E+00   0.00000000000000E+00   0.00000000000000E+00   0.00000000000000E+00   3.13819041443129E-18
     -6.97435052358863E-16  -6.94296861944432E-16  -2.96991382350563E-15   0.00000000000000E+00   0.00000000000000E+00
      0.00000000000000E+00   0.00000000000000E+00  -1.69800134131719E-09  -4.43411385725780E-29  -1.69800134131719E-09
      7.60586869535566E-16   2.37600000000000E+00   2.37600000000000E+00   0.00000000000000E+00   0.00000000000000E+00
      1.69800203559939E-09   1.46573253038957E-20   1.69800203561405E-09   2.29715954629816E-15   1.00000000000000E+00
      1.00000000000000E+00   0.00000000000000E+00   0.00000000000000E+00   0.00000000000000E+00   0.00000000000000E+00
      0.00000000000000E+00  -8.78325923280983E-17
      8.17000000000000E-01
      0.00000000000000E+00   0.00000000000000E+00   0.00000000000000E+00   0.00000000000000E+00   1.67096237016711E-18
     -7.09257505134308E-16  -7.07586542764141E-16  -2.99842067155554E-15   0.00000000000000E+00   0.00000000000000E+00
      0.00000000000000E+00   0.00000000000000E+00  -2.26322159807363E-09  -2.92501456839158E-28  -2.26322159807363E-09
      7.59586127095499E-16   2.45100000000000E+00   2.45100000000000E+00   0.00000000000000E+00   0.00000000000000E+00
      2.26322230564552E-09   1.46583412996148E-20   2.26322230566018E-09   2.33853770649655E-15   1.00000000000000E+00
      1.00000000000000E+00   0.00000000000000E+00   0.00000000000000E+00   0.00000000000000E+00   0.00000000000000E+00
      0.00000000000000E+00  -9.97031620365125E-17
      8.42000000000000E-01
      0.00000000000000E+00   0.00000000000000E+00   0.00000000000000E+00   0.00000000000000E+00  -9.08147215700749E-19
     -7.20527511244963E-16  -7.21435658460664E-16  -3.02643982351704E-15   0.00000000000000E+00   0.00000000000000E+00
      0.00000000000000E+00   0.00000000000000E+00  -3.00839828355063E-09  -6.37179587865052E-28  -3.00839828355063E-09
      7.58565104250641E-16   2.52600000000000E+00   2.52600000000000E+00   0.00000000000000E+00   0.00000000000000E+00
      3.00839900497164E-09   1.46592962984100E-20   3.00839900498629E-09   2.37945195267843E-15   1.00000000000000E+00
      1.00000000000000E+00   0.00000000000000E+00   0.00000000000000E+00   0.00000000000000E+00   0.00000000000000E+00
      0.00000000000000E+00  -1.11577233412034E-16
      8.67000000000000E-01
      0.00000000000000E+00   0.00000000000000E+00   0.00000000000000E+00   0.00000000000000E+00  -5.17521131071890E-19