DF-ISE text

Info {
  version   = 1.0
  type      = xyplot
  datasets  = [
    "time"
    "substrate OuterVoltage" "substrate InnerVoltage" "substrate QuasiFermiPotential" "substrate DisplacementCurrent" "substrate eCurrent"
    "substrate hCurrent" "substrate TotalCurrent" "substrate Charge" "source OuterVoltage" "source InnerVoltage"
    "source QuasiFermiPotential" "source DisplacementCurrent" "source eCurrent" "source hCurrent" "source TotalCurrent"
    "source Charge" "drain OuterVoltage" "drain InnerVoltage" "drain QuasiFermiPotential" "drain DisplacementCurrent"
    "drain eCurrent" "drain hCurrent" "drain TotalCurrent" "drain Charge" "gate OuterVoltage"
    "gate InnerVoltage" "gate QuasiFermiPotential" "gate DisplacementCurrent" "gate eCurrent" "gate hCurrent"
    "gate TotalCurrent" "gate Charge" ]
  functions = [
    Time
    OuterVoltage InnerVoltage QuasiFermiPotential DisplacementCurrent eCurrent
    hCurrent TotalCurrent Charge OuterVoltage InnerVoltage
    QuasiFermiPotential DisplacementCurrent eCurrent hCurrent TotalCurrent
    Charge OuterVoltage InnerVoltage QuasiFermiPotential DisplacementCurrent
    eCurrent hCurrent TotalCurrent Charge OuterVoltage
    InnerVoltage QuasiFermiPotential DisplacementCurrent eCurrent hCurrent
    TotalCurrent Charge ]
}

Data {
      0.00000000000000E+00
      0.00000000000000E+00   0.00000000000000E+00   0.00000000000000E+00   0.00000000000000E+00  -1.68435582403072E-17
     -5.87096695577478E-27  -1.68435582461781E-17  -8.76423400382724E-15   0.00000000000000E+00   0.00000000000000E+00
      0.00000000000000E+00   0.00000000000000E+00   8.14330238563979E-18   1.19244906705072E-27   8.14330238683224E-18
      2.50801967481853E-15   0.00000000000000E+00   0.00000000000000E+00   0.00000000000000E+00   0.00000000000000E+00
      8.70025585466796E-18   4.67792673352493E-27   8.70025585934589E-18   2.50801967481853E-15   3.00000000000000E+00
      3.00000000000000E+00   0.00000000000000E+00   0.00000000000000E+00   0.00000000000000E+00   0.00000000000000E+00
      0.00000000000000E+00   3.74819465419017E-15
      1.00000000000000E-02
      0.00000000000000E+00   0.00000000000000E+00   0.00000000000000E+00   0.00000000000000E+00  -1.29659065547305E-17
     -7.87233741369112E-17  -9.16892806916416E-17  -8.80360453068470E-15   0.00000000000000E+00   0.00000000000000E+00
      0.00000000000000E+00   0.00000000000000E+00  -1.80582346857101E-06  -1.93744889240790E-25  -1.80582346857101E-06
      2.50800408884267E-15   3.00000000000000E-02   3.00000000000000E-02   0.00000000000000E+00   0.00000000000000E+00
      1.80582346866266E-06   3.87773442054914E-20   1.80582346866270E-06   2.56719643934066E-15   3.00000000000000E+00
      3.00000000000000E+00   0.00000000000000E+00   0.00000000000000E+00   0.00000000000000E+00   0.00000000000000E+00
      0.00000000000000E+00   3.72840400250137E-15
      2.33333333333333E-02
      0.00000000000000E+00   0.00000000000000E+00   0.00000000000000E+00   0.00000000000000E+00  -4.75855999725685E-18
     -1.50731276924911E-16  -1.55489836922168E-16  -8.85726891974055E-15   0.00000000000000E+00   0.00000000000000E+00
      0.00000000000000E+00   0.00000000000000E+00  -3.70816668793067E-06  -3.63066740552136E-25  -3.70816668793067E-06
      2.50798717115002E-15   7.00000000000000E-02   7.00000000000000E-02   0.00000000000000E+00   0.00000000000000E+00
      3.70816668808641E-06  -2.51936300955702E-19   3.70816668808616E-06   2.64558532286315E-15   3.00000000000000E+00
      3.00000000000000E+00   0.00000000000000E+00   0.00000000000000E+00   0.00000000000000E+00   0.00000000000000E+00
      0.00000000000000E+00   3.70369642572739E-15
      4.24444444444445E-02
      0.00000000000000E+00   0.00000000000000E+00   0.00000000000000E+00   0.00000000000000E+00  -4.24049734007222E-17
     -2.32835154640341E-16  -2.75240128041063E-16  -8.93761570899821E-15   0.00000000000000E+00   0.00000000000000E+00
      0.00000000000000E+00   0.00000000000000E+00  -5.53571955975933E-06  -3.68404387671157E-24  -5.53571955975933E-06
      2.50797039574419E-15   1.27333333333333E-01   1.27333333333333E-01   0.00000000000000E+00   0.00000000000000E+00
      5.53571956003449E-06   7.25818047106046E-20   5.53571956003456E-06   2.75704904170879E-15   3.00000000000000E+00
      3.00000000000000E+00   0.00000000000000E+00   0.00000000000000E+00   0.00000000000000E+00   0.00000000000000E+00
      0.00000000000000E+00   3.67259627154523E-15
      6.74444444444444E-02
      0.00000000000000E+00   0.00000000000000E+00   0.00000000000000E+00   0.00000000000000E+00   9.37197946903073E-18
     -3.42148658570305E-16  -3.32776679101274E-16  -9.05097168088833E-15   0.00000000000000E+00   0.00000000000000E+00
      0.00000000000000E+00   0.00000000000000E+00  -6.67469698352898E-06  -6.58519296698237E-25  -6.67469698352898E-06
      2.50795966776451E-15   2.02333333333333E-01   2.02333333333333E-01   0.00000000000000E+00   0.00000000000000E+00
      6.67469698386169E-06   5.56458800563968E-20   6.67469698386175E-06   2.90139833674722E-15   3.00000000000000E+00
      3.00000000000000E+00   0.00000000000000E+00   0.00000000000000E+00   0.00000000000000E+00   0.00000000000000E+00
      0.00000000000000E+00   3.64161367637661E-15
      9.24444444444444E-02
      0.00000000000000E+00   0.00000000000000E+00   0.00000000000000E+00   0.00000000000000E+00   2.28363476655335E-18
     -4.76239673270733E-16  -4.73956038504180E-16  -9.17290550570287E-15   0.00000000000000E+00   0.00000000000000E+00
      0.00000000000000E+00   0.00000000000000E+00  -7.01209447242979E-06  -7.00756515244379E-25  -7.01209447242979E-06
      2.50795644825461E-15   2.77333333333333E-01   2.77333333333333E-01   0.00000000000000E+00   0.00000000000000E+00
      7.01209447290370E-06   4.30446791221005E-20   7.01209447290374E-06   3.04408685663223E-15   3.00000000000000E+00
      3.00000000000000E+00   0.00000000000000E+00   0.00000000000000E+00   0.00000000000000E+00   0.00000000000000E+00
      0.00000000000000E+00   3.62086220081605E-15
      1.17444444444444E-01
      0.00000000000000E+00   0.00000000000000E+00   0.00000000000000E+00   0.00000000000000E+00  -1.98384315701318E-17
     -6.38581481443822E-16  -6.58419913013954E-16  -9.29804377243631E-15   0.00000000000000E+00   0.00000000000000E+00
      0.00000000000000E+00   0.00000000000000E+00  -7.11840244820945E-06  -7.15148181470553E-25  -7.11840244820945E-06
      2.50795542984813E-15   3.52333333333333E-01   3.52333333333333E-01   0.00000000000000E+00   0.00000000000000E+00
      7.11840244886783E-06   3.14711662919104E-20   7.11840244886786E-06   3.18495714969290E-15   3.00000000000000E+00
      3.00000000000000E+00   0.00000000000000E+00   0.00000000000000E+00   0.00000000000000E+00   0.00000000000000E+00
      0.00000000000000E+00   3.60513119289528E-15
      1.42444444444444E-01
      0.00000000000000E+00   0.00000000000000E+00   0.00000000000000E+00   0.00000000000000E+00  -8.27944370728174E-17
     -8.32233299421798E-16  -9.15027736494615E-16  -9.42301449987828E-15   0.00000000000000E+00   0.00000000000000E+00
      0.00000000000000E+00   0.00000000000000E+00  -7.17930532256529E-06  -7.13332010227437E-25  -7.17930532256529E-06
      2.50795484554555E-15   4.27333333333333E-01   4.27333333333333E-01   0.00000000000000E+00   0.00000000000000E+00
      7.17930532348028E-06   3.59388011059850E-20   7.17930532348032E-06   3.32371169391035E-15   3.00000000000000E+00
      3.00000000000000E+00   0.00000000000000E+00   0.00000000000000E+00   0.00000000000000E+00   0.00000000000000E+00
      0.00000000000000E+00   3.59134796042238E-15
      1.67444444444444E-01
      0.00000000000000E+00   0.00000000000000E+00   0.00000000000000E+00   0.00000000000000E+00   3.35798104059575E-18
     -1.06275926772882E-15  -1.05940128668823E-15  -9.54664378719049E-15   0.00000000000000E+00   0.00000000000000E+00
      0.00000000000000E+00   0.00000000000000E+00  -7.22265950198360E-06  -7.12107424773382E-25  -7.22265950198360E-06
      2.50795442921978E-15   5.02333333333333E-01   5.02333333333333E-01   0.00000000000000E+00   0.00000000000000E+00
      7.22265950304295E-06   4.62462012918694E-20   7.22265950304299E-06   3.45992242764399E-15   3.00000000000000E+00
      3.00000000000000E+00   0.00000000000000E+00   0.00000000000000E+00   0.00000000000000E+00   0.00000000000000E+00
      0.00000000000000E+00   3.57876693032675E-15
      1.92444444444444E-01
      0.00000000000000E+00   0.00000000000000E+00   0.00000000000000E+00   0.00000000000000E+00  -6.17618855628593E-18
     -1.32700529957363E-15  -1.33318148812992E-15  -9.66796479334195E-15   0.00000000000000E+00   0.00000000000000E+00
      0.00000000000000E+00   0.00000000000000E+00  -7.25717314090470E-06  -7.17354195896543E-25  -7.25717314090470E-06
      2.50795409755932E-15   5.77333333333333E-01   5.77333333333333E-01   0.00000000000000E+00   0.00000000000000E+00
      7.25717314223782E-06   5.66920330475623E-20   7.25717314223788E-06   3.59302438387296E-15   3.00000000000000E+00
      3.00000000000000E+00   0.00000000000000E+00   0.00000000000000E+00   0.00000000000000E+00   0.00000000000000E+00
      0.00000000000000E+00   3.56698631190967E-15
      2.17444444444444E-01
      0.00000000000000E+00   0.00000000000000E+00   0.00000000000000E+00   0.00000000000000E+00  -8.65110000346805E-18
     -1.59492126555175E-15  -1.60357236555522E-15  -9.78611166598494E-15   0.00000000000000E+00   0.00000000000000E+00
      0.00000000000000E+00   0.00000000000000E+00  -7.28645591499540E-06  -7.17709916988593E-25  -7.28645591499540E-06
      2.50795381600542E-15   6.52333333333333E-01   6.52333333333333E-01   0.00000000000000E+00   0.00000000000000E+00
      7.28645591659893E-06   4.07499530851159E-20   7.28645591659897E-06   3.72237568547090E-15   3.00000000000000E+00
      3.00000000000000E+00   0.00000000000000E+00   0.00000000000000E+00   0.00000000000000E+00   0.00000000000000E+00
      0.00000000000000E+00   3.55578216450861E-15
      2.42444444444444E-01
      0.00000000000000E+00   0.00000000000000E+00   0.00000000000000E+00   0.00000000000000E+00   9.54245870756570E-16
     -1.80496569673480E-15  -8.50719825978232E-16  -9.90040059932339E-15   0.00000000000000E+00   0.00000000000000E+00
      0.00000000000000E+00   0.00000000000000E+00  -7.31233857844054E-06  -7.18383262042211E-25  -7.31233857844054E-06
      2.50795356702172E-15   7.27333333333333E-01   7.27333333333333E-01   0.00000000000000E+00   0.00000000000000E+00
      7.31233857929122E-06   3.56595365291551E-20   7.31233857929126E-06   3.84742225803187E-15   3.00000000000000E+00
      3.00000000000000E+00   0.00000000000000E+00   0.00000000000000E+00   0.00000000000000E+00   0.00000000000000E+00
      0.00000000000000E+00   3.54502477426979E-15
      2.67444444444444E-01
      0.00000000000000E+00   0.00000000000000E+00   0.00000000000000E+00   0.00000000000000E+00  -9.55635504429970E-18
     -1.93433763212843E-15  -1.94389398717273E-15  -1.00106301057624E-14   0.00000000000000E+00   0.00000000000000E+00
      0.00000000000000E+00   0.00000000000000E+00  -7.33550051236291E-06  -7.24676750412611E-25  -7.33550051236291E-06
      2.50795334411321E-15   8.02333333333333E-01   8.02333333333333E-01   0.00000000000000E+00   0.00000000000000E+00
      7.33550051430672E-06   7.16797297420014E-20   7.33550051430680E-06   3.96796203914609E-15   3.00000000000000E+00
      3.00000000000000E+00   0.00000000000000E+00   0.00000000000000E+00   0.00000000000000E+00   0.00000000000000E+00
      0.00000000000000E+00   3.53471472250308E-15
      2.92444444444444E-01
      0.00000000000000E+00   0.00000000000000E+00   0.00000000000000E+00   0.00000000000000E+00   9.27619736278655E-18
     -2.01593727918760E-15  -2.00666108182481E-15  -1.01172751451633E-14   0.00000000000000E+00   0.00000000000000E+00
      0.00000000000000E+00   0.00000000000000E+00  -7.35613489663073E-06  -7.24193475999576E-25  -7.35613489663073E-06
      2.50795314545222E-15   8.77333333333333E-01   8.77333333333333E-01   0.00000000000000E+00   0.00000000000000E+00
      7.35613489863733E-06   6.00652251286100E-20   7.35613489863739E-06   4.08439021357661E-15   3.00000000000000E+00
      3.00000000000000E+00   0.00000000000000E+00   0.00000000000000E+00   0.00000000000000E+00   0.00000000000000E+00
      0.00000000000000E+00   3.52493178613446E-15
      3.17444444444444E-01
      0.00000000000000E+00   0.00000000000000E+00   0.00000000000000E+00   0.00000000000000E+00   1.07665975717882E-17
     -2.07639658504649E-15  -2.06562998747470E-15  -1.02214735383224E-14   0.00000000000000E+00   0.00000000000000E+00
      0.00000000000000E+00   0.00000000000000E+00  -7.37423314502550E-06  -7.26602364028221E-25  -7.37423314502550E-06
      2.50795297114822E-15   9.52333333333333E-01   9.52333333333333E-01   0.00000000000000E+00   0.00000000000000E+00
      7.37423314709107E-06   5.05294391644452E-20   7.37423314709112E-06   4.19771306559420E-15   3.00000000000000E+00
      3.00000000000000E+00   0.00000000000000E+00   0.00000000000000E+00   0.00000000000000E+00   0.00000000000000E+00
      0.00000000000000E+00   3.51580750157996E-15
      3.42444444444444E-01
      0.00000000000000E+00   0.00000000000000E+00   0.00000000000000E+00   0.00000000000000E+00   6.83926109917133E-16
     -2.12221463551741E-15  -1.43828852560028E-15  -1.03245806632586E-14   0.00000000000000E+00   0.00000000000000E+00
      0.00000000000000E+00   0.00000000000000E+00  -7.38982966068132E-06  -7.26011537064270E-25  -7.38982966068132E-06
      2.50795282089333E-15   1.02733333333333E+00   1.02733333333333E+00   0.00000000000000E+00   0.00000000000000E+00
      7.38982966211956E-06   4.56811262282136E-20   7.38982966211960E-06   4.30916244619119E-15   3.00000000000000E+00
      3.00000000000000E+00   0.00000000000000E+00   0.00000000000000E+00   0.00000000000000E+00   0.00000000000000E+00
      0.00000000000000E+00   3.50746539617414E-15
      3.67444444444445E-01
      0.00000000000000E+00   0.00000000000000E+00   0.00000000000000E+00   0.00000000000000E+00   3.53744268096915E-18
     -2.15617140967064E-15  -2.15263396698967E-15  -1.04276318535457E-14   0.00000000000000E+00   0.00000000000000E+00
      0.00000000000000E+00   0.00000000000000E+00  -7.40317130092277E-06  -7.28173935673352E-25  -7.40317130092277E-06
      2.50795269232851E-15   1.10233333333333E+00   1.10233333333333E+00   0.00000000000000E+00   0.00000000000000E+00
      7.40317130307534E-06   5.67575906091989E-20   7.40317130307540E-06   4.41973633474817E-15   3.00000000000000E+00
      3.00000000000000E+00   0.00000000000000E+00   0.00000000000000E+00   0.00000000000000E+00   0.00000000000000E+00
      0.00000000000000E+00   3.49994282646905E-15
      3.92444444444445E-01
      0.00000000000000E+00   0.00000000000000E+00   0.00000000000000E+00   0.00000000000000E+00   3.53290193733608E-15
     -2.18132143875952E-15   1.35158049857656E-15  -1.05311127322640E-14   0.00000000000000E+00   0.00000000000000E+00
      0.00000000000000E+00   0.00000000000000E+00  -7.41472371846704E-06  -7.31740329679784E-25  -7.41472371846704E-06
      2.50795258098059E-15   1.17733333333333E+00   1.17733333333333E+00   0.00000000000000E+00   0.00000000000000E+00
      7.41472371711541E-06   4.51169909668094E-20   7.41472371711546E-06   4.53001095697731E-15   3.00000000000000E+00
      3.00000000000000E+00   0.00000000000000E+00   0.00000000000000E+00   0.00000000000000E+00   0.00000000000000E+00
      0.00000000000000E+00   3.49314919430606E-15
      4.17444444444445E-01
      0.00000000000000E+00   0.00000000000000E+00   0.00000000000000E+00   0.00000000000000E+00   2.04654264071240E-11
     -2.20099787760868E-15   2.04632254092464E-11  -1.06350034490416E-14   0.00000000000000E+00   0.00000000000000E+00
      0.00000000000000E+00   0.00000000000000E+00  -7.42504201923924E-06  -7.29389393720081E-25  -7.42504201923924E-06
      2.50795248150829E-15   1.25233333333333E+00   1.25233333333333E+00   0.00000000000000E+00   0.00000000000000E+00
      7.42502155601380E-06   3.18091748879313E-20   7.42502155601383E-06   4.64015792072501E-15   3.00000000000000E+00
      3.00000000000000E+00   0.00000000000000E+00   0.00000000000000E+00   0.00000000000000E+00   0.00000000000000E+00
      0.00000000000000E+00   3.48689304680836E-15
      4.42444444444445E-01
      0.00000000000000E+00   0.00000000000000E+00   0.00000000000000E+00   0.00000000000000E+00  -1.34401511910977E-16
     -2.21817279949162E-15  -2.35257431140259E-15  -1.07389769018712E-14   0.00000000000000E+00   0.00000000000000E+00
      0.00000000000000E+00   0.00000000000000E+00  -7.43463719342671E-06  -7.35898237951190E-25  -7.43463719342671E-06
      2.50795238899089E-15   1.32733333333333E+00   1.32733333333333E+00   0.00000000000000E+00   0.00000000000000E+00
      7.43463719577923E-06   5.68671378349710E-20   7.43463719577928E-06   4.75007479050101E-15   3.00000000000000E+00
      3.00000000000000E+00   0.00000000000000E+00   0.00000000000000E+00   0.00000000000000E+00   0.00000000000000E+00
      0.00000000000000E+00   3.48094972237934E-15
      4.67444444444445E-01
      0.00000000000000E+00   0.00000000000000E+00   0.00000000000000E+00   0.00000000000000E+00   1.23039493101220E-17
     -2.23402168433654E-15  -2.22171773502641E-15  -1.08427630574175E-14   0.00000000000000E+00   0.00000000000000E+00
      0.00000000000000E+00   0.00000000000000E+00  -7.44380936847727E-06  -7.34039900319131E-25  -7.44380936847727E-06
      2.50795230053724E-15   1.40233333333333E+00   1.40233333333333E+00   0.00000000000000E+00   0.00000000000000E+00
      7.44380937069893E-06   5.21961852582386E-20   7.44380937069898E-06   4.85963311408791E-15   3.00000000000000E+00
      3.00000000000000E+00   0.00000000000000E+00   0.00000000000000E+00   0.00000000000000E+00   0.00000000000000E+00
      0.00000000000000E+00   3.47517764279233E-15
      4.92444444444445E-01
      0.00000000000000E+00   0.00000000000000E+00   0.00000000000000E+00   0.00000000000000E+00  -3.31403454280276E-18
     -2.25054828269443E-15  -2.25386231723723E-15  -1.09462746836178E-14   0.00000000000000E+00   0.00000000000000E+00
      0.00000000000000E+00   0.00000000000000E+00  -7.45264565177495E-06  -7.35120636677945E-25  -7.45264565177495E-06
      2.50795221530916E-15   1.47733333333333E+00   1.47733333333333E+00   0.00000000000000E+00   0.00000000000000E+00
      7.45264565402876E-06   4.20686040526028E-20   7.45264565402881E-06   4.96878047471116E-15   3.00000000000000E+00
      3.00000000000000E+00   0.00000000000000E+00   0.00000000000000E+00   0.00000000000000E+00   0.00000000000000E+00
      0.00000000000000E+00   3.46954199359752E-15
      5.17444444444445E-01
      0.00000000000000E+00   0.00000000000000E+00   0.00000000000000E+00   0.00000000000000E+00  -3.31175833116656E-18
     -2.27267537655554E-15  -2.27598713488671E-15  -1.10495110460002E-14   0.00000000000000E+00   0.00000000000000E+00
      0.00000000000000E+00   0.00000000000000E+00  -7.46114446738831E-06  -7.35378305876540E-25  -7.46114446738831E-06
      2.50795213332337E-15   1.55233333333333E+00   1.55233333333333E+00   0.00000000000000E+00   0.00000000000000E+00
      7.46114446966424E-06   4.98060311879871E-20   7.46114446966429E-06   5.07750346168735E-15   3.00000000000000E+00
      3.00000000000000E+00   0.00000000000000E+00   0.00000000000000E+00   0.00000000000000E+00   0.00000000000000E+00
      0.00000000000000E+00   3.46405545098949E-15
      5.42444444444445E-01
      0.00000000000000E+00   0.00000000000000E+00   0.00000000000000E+00   0.00000000000000E+00  -1.95918842253493E-18
     -2.30626094040406E-15  -2.30822012882659E-15  -1.11524781984005E-14   0.00000000000000E+00   0.00000000000000E+00
      0.00000000000000E+00   0.00000000000000E+00  -7.46929986620178E-06  -7.36405525911378E-25  -7.46929986620178E-06
      2.50795205463875E-15   1.62733333333333E+00   1.62733333333333E+00   0.00000000000000E+00   0.00000000000000E+00
      7.46929986850994E-06   5.43303862959923E-20   7.46929986851000E-06   5.18579438158414E-15   3.00000000000000E+00
      3.00000000000000E+00   0.00000000000000E+00   0.00000000000000E+00   0.00000000000000E+00   0.00000000000000E+00
      0.00000000000000E+00   3.45873176217761E-15
      5.67444444444445E-01
      0.00000000000000E+00   0.00000000000000E+00   0.00000000000000E+00   0.00000000000000E+00   6.21379995608175E-18
     -2.35824827066799E-15  -2.35203447071191E-15  -1.12551405769521E-14   0.00000000000000E+00   0.00000000000000E+00
      0.00000000000000E+00   0.00000000000000E+00  -7.47715073895048E-06  -7.38022982178571E-25  -7.47715073895048E-06
      2.50795197888145E-15   1.70233333333333E+00   1.70233333333333E+00   0.00000000000000E+00   0.00000000000000E+00
      7.47715074130247E-06   4.35501039152339E-20   7.47715074130251E-06   5.29363390818417E-15   3.00000000000000E+00
      3.00000000000000E+00   0.00000000000000E+00   0.00000000000000E+00   0.00000000000000E+00   0.00000000000000E+00
      0.00000000000000E+00   3.45355468988652E-15
      5.92444444444445E-01
      0.00000000000000E+00   0.00000000000000E+00   0.00000000000000E+00   0.00000000000000E+00   1.19798719327146E-18
     -2.43920454699424E-15  -2.43800655980097E-15  -1.13574161065010E-14   0.00000000000000E+00   0.00000000000000E+00
      0.00000000000000E+00   0.00000000000000E+00  -7.48478024815920E-06  -7.39626204449510E-25  -7.48478024815920E-06
      2.50795190525002E-15   1.77733333333333E+00   1.77733333333333E+00   0.00000000000000E+00   0.00000000000000E+00
      7.48478025059717E-06   3.28987033835013E-20   7.48478025059720E-06   5.40098755951660E-15   3.00000000000000E+00
      3.00000000000000E+00   0.00000000000000E+00   0.00000000000000E+00   0.00000000000000E+00   0.00000000000000E+00
      0.00000000000000E+00   3.44847664173435E-15
      6.17444444444445E-01
      0.00000000000000E+00   0.00000000000000E+00   0.00000000000000E+00   0.00000000000000E+00  -8.97420390287143E-19
     -2.55757919896826E-15  -2.55847661935855E-15  -1.14592121250753E-14   0.00000000000000E+00   0.00000000000000E+00
      0.00000000000000E+00   0.00000000000000E+00  -7.49226898827644E-06  -7.39596247182604E-25  -7.49226898827644E-06
      2.50795183296739E-15   1.85233333333333E+00   1.85233333333333E+00   0.00000000000000E+00   0.00000000000000E+00
      7.49226899083487E-06   3.69149034766042E-20   7.49226899083491E-06   5.50781190925339E-15   3.00000000000000E+00
      3.00000000000000E+00   0.00000000000000E+00   0.00000000000000E+00   0.00000000000000E+00   0.00000000000000E+00
      0.00000000000000E+00   3.44344838285450E-15
      6.42444444444445E-01
      0.00000000000000E+00   0.00000000000000E+00   0.00000000000000E+00   0.00000000000000E+00   6.07176165187746E-16
     -2.70730528630379E-15  -2.10012912111604E-15  -1.15604434707563E-14   0.00000000000000E+00   0.00000000000000E+00
      0.00000000000000E+00   0.00000000000000E+00  -7.49966631151103E-06  -7.44046258136249E-25  -7.49966631151103E-06
      2.50795176155765E-15   1.92733333333333E+00   1.92733333333333E+00   0.00000000000000E+00   0.00000000000000E+00
      7.49966631361108E-06   7.59175595038389E-20   7.49966631361116E-06   5.61405270325844E-15   3.00000000000000E+00
      3.00000000000000E+00   0.00000000000000E+00   0.00000000000000E+00   0.00000000000000E+00   0.00000000000000E+00
      0.00000000000000E+00   3.43843900594019E-15
      6.67444444444445E-01
      0.00000000000000E+00   0.00000000000000E+00   0.00000000000000E+00   0.00000000000000E+00   6.59663666393648E-18
     -2.85899410419309E-15  -2.85239746752915E-15  -1.16610193292664E-14   0.00000000000000E+00   0.00000000000000E+00
      0.00000000000000E+00   0.00000000000000E+00  -7.50699513723911E-06  -7.44052073395747E-25  -7.50699513723911E-06
      2.50795169079986E-15   2.00233333333333E+00   2.00233333333333E+00   0.00000000000000E+00   0.00000000000000E+00
      7.50699514009143E-06   6.96070816439725E-20   7.50699514009150E-06   5.71963342815091E-15   3.00000000000000E+00
      3.00000000000000E+00   0.00000000000000E+00   0.00000000000000E+00   0.00000000000000E+00   0.00000000000000E+00
      0.00000000000000E+00   3.43343421031567E-15
      6.92444444444445E-01
      0.00000000000000E+00   0.00000000000000E+00   0.00000000000000E+00   0.00000000000000E+00   4.05543155661467E-12
     -2.97587449581155E-15   4.05245568211886E-12  -1.17608221363985E-14   0.00000000000000E+00   0.00000000000000E+00
      0.00000000000000E+00   0.00000000000000E+00  -7.51426530960489E-06  -7.41709783982105E-25  -7.51426530960489E-06
      2.50795162059964E-15   2.07733333333333E+00   2.07733333333333E+00   0.00000000000000E+00   0.00000000000000E+00
      7.51426125714917E-06   3.54117797200744E-20   7.51426125714921E-06   5.82444239398597E-15   3.00000000000000E+00
      3.00000000000000E+00   0.00000000000000E+00   0.00000000000000E+00   0.00000000000000E+00   0.00000000000000E+00
      0.00000000000000E+00   3.42842812181288E-15
      7.17444444444445E-01
      0.00000000000000E+00   0.00000000000000E+00   0.00000000000000E+00   0.00000000000000E+00  -1.60382786466447E-13
     -3.04774494666646E-15  -1.63430531413113E-13  -1.18596917383301E-14   0.00000000000000E+00   0.00000000000000E+00
      0.00000000000000E+00   0.00000000000000E+00  -7.52148106476139E-06  -7.42815135991557E-25  -7.52148106476139E-06
      2.50795155091587E-15   2.15233333333333E+00   2.15233333333333E+00   0.00000000000000E+00   0.00000000000000E+00
      7.52148122819194E-06  -2.27621406263797E-20   7.52148122819192E-06   5.92832174276755E-15   3.00000000000000E+00
      3.00000000000000E+00   0.00000000000000E+00   0.00000000000000E+00   0.00000000000000E+00   0.00000000000000E+00
      0.00000000000000E+00   3.42341844464669E-15
      7.42444444444445E-01
      0.00000000000000E+00   0.00000000000000E+00   0.00000000000000E+00   0.00000000000000E+00  -1.65061316989096E-18
     -3.08990475927362E-15  -3.09155537244351E-15  -1.19574144602409E-14   0.00000000000000E+00   0.00000000000000E+00
      0.00000000000000E+00   0.00000000000000E+00  -7.52864443419021E-06  -7.41546866935377E-25  -7.52864443419021E-06
      2.50795148172794E-15   2.22733333333333E+00   2.22733333333333E+00   0.00000000000000E+00   0.00000000000000E+00
      7.52864443728172E-06   3.46548505092099E-20   7.52864443728175E-06   6.03105867182910E-15   3.00000000000000E+00
      3.00000000000000E+00   0.00000000000000E+00   0.00000000000000E+00   0.00000000000000E+00   0.00000000000000E+00
      0.00000000000000E+00   3.41840430668391E-15
      7.67444444444445E-01
      0.00000000000000E+00   0.00000000000000E+00   0.00000000000000E+00   0.00000000000000E+00  -1.18161682168078E-17
     -3.11801831487203E-15  -3.12983448308884E-15  -1.20537201571422E-14   0.00000000000000E+00   0.00000000000000E+00
      0.00000000000000E+00   0.00000000000000E+00  -7.53575663960824E-06  -7.44389175460175E-25  -7.53575663960824E-06
      2.50795141302625E-15   2.30233333333333E+00   2.30233333333333E+00   0.00000000000000E+00   0.00000000000000E+00
      7.53575664273800E-06   6.59738223273832E-20   7.53575664273807E-06   6.13238335269297E-15   3.00000000000000E+00
      3.00000000000000E+00   0.00000000000000E+00   0.00000000000000E+00   0.00000000000000E+00   0.00000000000000E+00
      0.00000000000000E+00   3.41338539142302E-15
      7.92444444444445E-01
      0.00000000000000E+00   0.00000000000000E+00   0.00000000000000E+00   0.00000000000000E+00   4.10744818258276E-18
     -3.13919849987314E-15  -3.13509105169056E-15  -1.21482981612152E-14   0.00000000000000E+00   0.00000000000000E+00
      0.00000000000000E+00   0.00000000000000E+00  -7.54281839663327E-06  -7.42574052107782E-25  -7.54281839663327E-06
      2.50795134480325E-15   2.37733333333333E+00   2.37733333333333E+00   0.00000000000000E+00   0.00000000000000E+00
      7.54281839976829E-06   6.72864795129717E-20   7.54281839976836E-06   6.23198521723611E-15   3.00000000000000E+00
      3.00000000000000E+00   0.00000000000000E+00   0.00000000000000E+00   0.00000000000000E+00   0.00000000000000E+00
      0.00000000000000E+00   3.40836159917586E-15
      8.17444444444445E-01
      0.00000000000000E+00   0.00000000000000E+00   0.00000000000000E+00   0.00000000000000E+00  -3.88169551519160E-18
     -3.15575117656761E-15  -3.15963287208280E-15  -1.22408480590428E-14   0.00000000000000E+00   0.00000000000000E+00
      0.00000000000000E+00   0.00000000000000E+00  -7.54983030550865E-06  -7.44704030913728E-25  -7.54983030550865E-06
      2.50795127705334E-15   2.45233333333333E+00   2.45233333333333E+00   0.00000000000000E+00   0.00000000000000E+00
      7.54983030866822E-06   5.83874544923634E-20   7.54983030866828E-06   6.32956387463915E-15   3.00000000000000E+00
      3.00000000000000E+00   0.00000000000000E+00   0.00000000000000E+00   0.00000000000000E+00   0.00000000000000E+00
      0.00000000000000E+00   3.40333290735032E-15
      8.42444444444445E-01
      0.00000000000000E+00   0.00000000000000E+00   0.00000000000000E+00   0.00000000000000E+00   3.22052589481533E-18
     -3.16922949855257E-15  -3.16600897265775E-15  -1.23311712228216E-14   0.00000000000000E+00   0.00000000000000E+00
      0.00000000000000E+00   0.00000000000000E+00  -7.55679293681751E-06  -7.44494838898229E-25  -7.55679293681751E-06
      2.50795120977116E-15   2.52733333333333E+00   2.52733333333333E+00   0.00000000000000E+00   0.00000000000000E+00
      7.55679293998347E-06   5.67527034289764E-20   7.55679293998352E-06   6.42492070106376E-15   3.00000000000000E+00
      3.00000000000000E+00   0.00000000000000E+00   0.00000000000000E+00   0.00000000000000E+00   0.00000000000000E+00
      0.00000000000000E+00   3.39829931198672E-15
      8.67444444444445E-01
      0.00000000000000E+00   0.00000000000000E+00   0.00000000000000E+00   0.00000000000000E+00   3.90981580852151E-18