DF-ISE text

Info {
  version   = 1.0
  type      = xyplot
  datasets  = [
    "time"
    "substrate OuterVoltage" "substrate InnerVoltage" "substrate QuasiFermiPotential" "substrate DisplacementCurrent" "substrate eCurrent"
    "substrate hCurrent" "substrate TotalCurrent" "substrate Charge" "source OuterVoltage" "source InnerVoltage"
    "source QuasiFermiPotential" "source DisplacementCurrent" "source eCurrent" "source hCurrent" "source TotalCurrent"
    "source Charge" "drain OuterVoltage" "drain InnerVoltage" "drain QuasiFermiPotential" "drain DisplacementCurrent"
    "drain eCurrent" "drain hCurrent" "drain TotalCurrent" "drain Charge" "gate OuterVoltage"
    "gate InnerVoltage" "gate QuasiFermiPotential" "gate DisplacementCurrent" "gate eCurrent" "gate hCurrent"
    "gate TotalCurrent" "gate Charge" ]
  functions = [
    Time
    OuterVoltage InnerVoltage QuasiFermiPotential DisplacementCurrent eCurrent
    hCurrent TotalCurrent Charge OuterVoltage InnerVoltage
    QuasiFermiPotential DisplacementCurrent eCurrent hCurrent TotalCurrent
    Charge OuterVoltage InnerVoltage QuasiFermiPotential DisplacementCurrent
    eCurrent hCurrent TotalCurrent Charge OuterVoltage
    InnerVoltage QuasiFermiPotential DisplacementCurrent eCurrent hCurrent
    TotalCurrent Charge ]
}

Data {
      0.00000000000000E+00
      0.00000000000000E+00   0.00000000000000E+00   0.00000000000000E+00   0.00000000000000E+00   1.11024914136805E-20
      7.78553428242201E-28   1.11024921922339E-20  -2.21493290754522E-15   0.00000000000000E+00   0.00000000000000E+00
      0.00000000000000E+00   0.00000000000000E+00  -9.81825822171521E-21   2.29615921316778E-28  -9.81825799209929E-21
      1.10522507592929E-15   0.00000000000000E+00   0.00000000000000E+00   0.00000000000000E+00   0.00000000000000E+00
     -1.28423319197253E-21  -1.00816210432760E-27  -1.28423420013464E-21   1.10522507592929E-15   0.00000000000000E+00
      0.00000000000000E+00   0.00000000000000E+00   0.00000000000000E+00   0.00000000000000E+00   0.00000000000000E+00
      0.00000000000000E+00   4.48275568663580E-18
      1.00000000000000E-02
      0.00000000000000E+00   0.00000000000000E+00   0.00000000000000E+00   0.00000000000000E+00   1.31925971093436E-17
     -1.86877073037520E-17  -5.49511019440842E-18  -2.23900406607603E-15   0.00000000000000E+00   0.00000000000000E+00
      0.00000000000000E+00   0.00000000000000E+00  -2.26069123992529E-19   9.50816197366270E-29  -2.26069123897447E-19
      1.10522507526475E-15   3.00000000000000E-02   3.00000000000000E-02   0.00000000000000E+00   0.00000000000000E+00
      5.70866788909355E-18   1.25114292123762E-20   5.72117931830592E-18   1.13319137666027E-15   0.00000000000000E+00
      0.00000000000000E+00   0.00000000000000E+00   0.00000000000000E+00   0.00000000000000E+00   0.00000000000000E+00
      0.00000000000000E+00   5.87614151007749E-19
      2.33333333333333E-02
      0.00000000000000E+00   0.00000000000000E+00   0.00000000000000E+00   0.00000000000000E+00   1.81860878746158E-17
     -3.52084178836991E-17  -1.70223300090833E-17  -2.27084985641879E-15   0.00000000000000E+00   0.00000000000000E+00
      0.00000000000000E+00   0.00000000000000E+00  -2.84862210293466E-19  -2.59071825054353E-28  -2.84862210552538E-19
      1.10522507433184E-15   7.00000000000000E-02   7.00000000000000E-02   0.00000000000000E+00   0.00000000000000E+00
      1.72900574221625E-17   1.71347974733712E-20   1.73071922196359E-17   1.17023892456165E-15   0.00000000000000E+00
      0.00000000000000E+00   0.00000000000000E+00   0.00000000000000E+00   0.00000000000000E+00   0.00000000000000E+00
      0.00000000000000E+00  -4.61414247471090E-18
      4.28888888888889E-02
      0.00000000000000E+00   0.00000000000000E+00   0.00000000000000E+00   0.00000000000000E+00  -1.21860688063871E-20
     -5.51832384645980E-17  -5.51954245334044E-17  -2.31707587455947E-15   0.00000000000000E+00   0.00000000000000E+00
      0.00000000000000E+00   0.00000000000000E+00  -3.07349640128617E-19  -1.45047447817249E-28  -3.07349640273664E-19
      1.10522507286435E-15   1.28666666666667E-01   1.28666666666667E-01   0.00000000000000E+00   0.00000000000000E+00
      5.54879604366727E-17   1.48137370055126E-20   5.55027741736782E-17   1.22410976053839E-15   0.00000000000000E+00
      0.00000000000000E+00   0.00000000000000E+00   0.00000000000000E+00   0.00000000000000E+00   0.00000000000000E+00
      0.00000000000000E+00  -1.22589588432655E-17
      6.78888888888889E-02
      0.00000000000000E+00   0.00000000000000E+00   0.00000000000000E+00   0.00000000000000E+00  -2.97776650525730E-20
     -8.26098446262547E-17  -8.26396222913073E-17  -2.37537610809430E-15   0.00000000000000E+00   0.00000000000000E+00
      0.00000000000000E+00   0.00000000000000E+00  -2.96494056368885E-19   2.71804170405596E-28  -2.96494056097081E-19
      1.10522507081068E-15   2.03666666666667E-01   2.03666666666667E-01   0.00000000000000E+00   0.00000000000000E+00
      8.29129152921799E-17   2.32010552243740E-20   8.29361163474043E-17   1.29220701563905E-15   0.00000000000000E+00
      0.00000000000000E+00   0.00000000000000E+00   0.00000000000000E+00   0.00000000000000E+00   0.00000000000000E+00
      0.00000000000000E+00  -2.20559783554299E-17
      9.28888888888889E-02
      0.00000000000000E+00   0.00000000000000E+00   0.00000000000000E+00   0.00000000000000E+00  -2.11359305668065E-20
     -1.17315621498708E-16  -1.17336757429275E-16  -2.43279679768042E-15   0.00000000000000E+00   0.00000000000000E+00
      0.00000000000000E+00   0.00000000000000E+00  -3.00853045311807E-19   1.41945319851578E-28  -3.00853045169862E-19
      1.10522506854844E-15   2.78666666666667E-01   2.78666666666667E-01   0.00000000000000E+00   0.00000000000000E+00
      1.17594593908348E-16   4.30165660963129E-20   1.17637610474445E-16   1.35944790757636E-15   0.00000000000000E+00
      0.00000000000000E+00   0.00000000000000E+00   0.00000000000000E+00   0.00000000000000E+00   0.00000000000000E+00
      0.00000000000000E+00  -3.18761784443828E-17
      1.17888888888889E-01
      0.00000000000000E+00   0.00000000000000E+00   0.00000000000000E+00   0.00000000000000E+00  -4.14900387574159E-20
     -1.67367982431417E-16  -1.67409472470174E-16  -2.48932455283063E-15   0.00000000000000E+00   0.00000000000000E+00
      0.00000000000000E+00   0.00000000000000E+00  -2.87263483851642E-19   5.82080046637995E-28  -2.87263483269562E-19
      1.10522506606549E-15   3.53666666666667E-01   3.53666666666667E-01   0.00000000000000E+00   0.00000000000000E+00
      1.67655753090255E-16   4.09828631887760E-20   1.67696735953444E-16   1.42581623215774E-15   0.00000000000000E+00
      0.00000000000000E+00   0.00000000000000E+00   0.00000000000000E+00   0.00000000000000E+00   0.00000000000000E+00
      0.00000000000000E+00  -4.17167453926092E-17
      1.42888888888889E-01
      0.00000000000000E+00   0.00000000000000E+00   0.00000000000000E+00   0.00000000000000E+00  -3.64154960053217E-20
     -2.39665859527137E-16  -2.39702275023143E-16  -2.54491349261069E-15   0.00000000000000E+00   0.00000000000000E+00
      0.00000000000000E+00   0.00000000000000E+00  -2.95869395832523E-19   4.20772521774772E-28  -2.95869395411750E-19
      1.10522506334755E-15   4.28666666666667E-01   4.28666666666667E-01   0.00000000000000E+00   0.00000000000000E+00
      2.39978059216624E-16   2.00852019303855E-20   2.39998144418554E-16   1.49126422717216E-15   0.00000000000000E+00
      0.00000000000000E+00   0.00000000000000E+00   0.00000000000000E+00   0.00000000000000E+00   0.00000000000000E+00
      0.00000000000000E+00  -5.15757979090294E-17
      1.67888888888889E-01
      0.00000000000000E+00   0.00000000000000E+00   0.00000000000000E+00   0.00000000000000E+00  -2.35056426042664E-20
     -3.34525890154804E-16  -3.34549395797408E-16  -2.59946944072716E-15   0.00000000000000E+00   0.00000000000000E+00
      0.00000000000000E+00   0.00000000000000E+00  -3.11223741434671E-19  -2.54306663355876E-28  -3.11223741688977E-19
      1.10522506037878E-15   5.03666666666667E-01   5.03666666666667E-01   0.00000000000000E+00   0.00000000000000E+00
      3.34825188786867E-16   3.54307522311559E-20   3.34860619539098E-16   1.55569648030527E-15   0.00000000000000E+00
      0.00000000000000E+00   0.00000000000000E+00   0.00000000000000E+00   0.00000000000000E+00   0.00000000000000E+00
      0.00000000000000E+00  -6.14520999568977E-17
      1.92888888888889E-01
      0.00000000000000E+00   0.00000000000000E+00   0.00000000000000E+00   0.00000000000000E+00  -4.22630791120578E-20
     -4.46080057308637E-16  -4.46122320387749E-16  -2.65283941404918E-15   0.00000000000000E+00   0.00000000000000E+00
      0.00000000000000E+00   0.00000000000000E+00  -2.93811668457056E-19  -8.22137301516499E-28  -2.93811669279194E-19
      1.10522505714253E-15   5.78666666666667E-01   5.78666666666667E-01   0.00000000000000E+00   0.00000000000000E+00
      4.46355928732630E-16   6.02033243981914E-20   4.46416132057028E-16   1.61895914249190E-15   0.00000000000000E+00
      0.00000000000000E+00   0.00000000000000E+00   0.00000000000000E+00   0.00000000000000E+00   0.00000000000000E+00
      0.00000000000000E+00  -7.13447855852460E-17
      2.17888888888889E-01
      0.00000000000000E+00   0.00000000000000E+00   0.00000000000000E+00   0.00000000000000E+00  -3.79197657697520E-20
     -5.40396881967535E-16  -5.40434801733305E-16  -2.70482460244251E-15   0.00000000000000E+00   0.00000000000000E+00
      0.00000000000000E+00   0.00000000000000E+00  -3.00183509954886E-19   6.69051817648838E-29  -3.00183509887980E-19
      1.10522505362212E-15   6.53666666666667E-01   6.53666666666667E-01   0.00000000000000E+00   0.00000000000000E+00
      5.41156450544548E-16  -4.21465301355112E-19   5.40734985243193E-16   1.68085269240437E-15   0.00000000000000E+00
      0.00000000000000E+00   0.00000000000000E+00   0.00000000000000E+00   0.00000000000000E+00   0.00000000000000E+00
      0.00000000000000E+00  -8.12531435839826E-17
      2.42888888888889E-01
      0.00000000000000E+00   0.00000000000000E+00   0.00000000000000E+00   0.00000000000000E+00  -3.23757737142196E-20
     -5.98360544270652E-16  -5.98392920044366E-16  -2.75524551421460E-15   0.00000000000000E+00   0.00000000000000E+00
      0.00000000000000E+00   0.00000000000000E+00  -3.08107867625059E-19  -1.47968802721684E-29  -3.08107867639856E-19
      1.10522504980149E-15   7.28666666666667E-01   7.28666666666667E-01   0.00000000000000E+00   0.00000000000000E+00
      5.98420562836363E-16   2.80465075643470E-19   5.98701027912006E-16   1.74119689858189E-15   0.00000000000000E+00
      0.00000000000000E+00   0.00000000000000E+00   0.00000000000000E+00   0.00000000000000E+00   0.00000000000000E+00
      0.00000000000000E+00  -9.11764341687869E-17
      2.67888888888889E-01
      0.00000000000000E+00   0.00000000000000E+00   0.00000000000000E+00   0.00000000000000E+00  -3.25009830955147E-20
     -6.33016985072751E-16  -6.33049486055846E-16  -2.80406621781290E-15   0.00000000000000E+00   0.00000000000000E+00
      0.00000000000000E+00   0.00000000000000E+00  -3.10450790027691E-19  -2.93377982715854E-28  -3.10450790321069E-19
      1.10522504566589E-15   8.03666666666667E-01   8.03666666666667E-01   0.00000000000000E+00   0.00000000000000E+00
      6.33293544527727E-16   6.63923184391324E-20   6.33359936846166E-16   1.79995488331615E-15   0.00000000000000E+00
      0.00000000000000E+00   0.00000000000000E+00   0.00000000000000E+00   0.00000000000000E+00   0.00000000000000E+00
      0.00000000000000E+00  -1.01113711169131E-16
      2.92888888888889E-01
      0.00000000000000E+00   0.00000000000000E+00   0.00000000000000E+00   0.00000000000000E+00  -2.86292004187597E-20
     -6.57109258954735E-16  -6.57137888155154E-16  -2.85147389082358E-15   0.00000000000000E+00   0.00000000000000E+00
      0.00000000000000E+00   0.00000000000000E+00  -3.16730869636674E-19  -1.08940592891823E-27  -3.16730870726080E-19
      1.10522504120246E-15   8.78666666666667E-01   8.78666666666667E-01   0.00000000000000E+00   0.00000000000000E+00
      6.56711097716158E-16   7.43521309721264E-19   6.57454619025880E-16   1.85731250228776E-15   0.00000000000000E+00
      0.00000000000000E+00   0.00000000000000E+00   0.00000000000000E+00   0.00000000000000E+00   0.00000000000000E+00
      0.00000000000000E+00  -1.11063652666639E-16
      3.17888888888889E-01
      0.00000000000000E+00   0.00000000000000E+00   0.00000000000000E+00   0.00000000000000E+00  -2.64015939768163E-20
     -6.71615373859374E-16  -6.71641775453351E-16  -2.89778942906042E-15   0.00000000000000E+00   0.00000000000000E+00
      0.00000000000000E+00   0.00000000000000E+00  -3.21167335438388E-19  -2.07307397945451E-29  -3.21167335459118E-19
      1.10522503640068E-15   9.53666666666667E-01   9.53666666666667E-01   0.00000000000000E+00   0.00000000000000E+00
      6.71775708990976E-16   1.87233797833520E-19   6.71962942788809E-16   1.91358881873023E-15   0.00000000000000E+00
      0.00000000000000E+00   0.00000000000000E+00   0.00000000000000E+00   0.00000000000000E+00   0.00000000000000E+00
      0.00000000000000E+00  -1.21024426070482E-16
      3.42888888888889E-01
      0.00000000000000E+00   0.00000000000000E+00   0.00000000000000E+00   0.00000000000000E+00  -2.81310479667942E-20
     -6.82282907388270E-16  -6.82311038436237E-16  -2.94331169128660E-15   0.00000000000000E+00   0.00000000000000E+00
      0.00000000000000E+00   0.00000000000000E+00  -3.21505116030148E-19   1.12059478878385E-28  -3.21505115918088E-19
      1.10522503125251E-15   1.02866666666667E+00   1.02866666666667E+00   0.00000000000000E+00   0.00000000000000E+00
      6.82551569256725E-16   8.09742954303911E-20   6.82632543552155E-16   1.96908029234640E-15   0.00000000000000E+00
      0.00000000000000E+00   0.00000000000000E+00   0.00000000000000E+00   0.00000000000000E+00   0.00000000000000E+00
      0.00000000000000E+00  -1.30993632312294E-16
      3.67888888888889E-01
      0.00000000000000E+00   0.00000000000000E+00   0.00000000000000E+00   0.00000000000000E+00  -3.39882970526236E-20
     -6.90781001793087E-16  -6.90814990090139E-16  -2.98825175317441E-15   0.00000000000000E+00   0.00000000000000E+00
      0.00000000000000E+00   0.00000000000000E+00  -3.17797687572292E-19   4.95763918472156E-28  -3.17797687076528E-19
      1.10522502575212E-15   1.10366666666667E+00   1.10366666666667E+00   0.00000000000000E+00   0.00000000000000E+00
      6.91072258645684E-16   6.05291315328392E-20   6.91132787777217E-16   2.02399511961641E-15   0.00000000000000E+00
      0.00000000000000E+00   0.00000000000000E+00   0.00000000000000E+00   0.00000000000000E+00   0.00000000000000E+00
      0.00000000000000E+00  -1.40968392194116E-16
      3.92888888888889E-01
      0.00000000000000E+00   0.00000000000000E+00   0.00000000000000E+00   0.00000000000000E+00  -2.72781161502607E-20
     -6.98112023989497E-16  -6.98139302105647E-16  -3.03274136214124E-15   0.00000000000000E+00   0.00000000000000E+00
      0.00000000000000E+00   0.00000000000000E+00  -3.26642877525572E-19  -2.67089108884465E-28  -3.26642877792661E-19
      1.10522501989510E-15   1.17866666666667E+00   1.17866666666667E+00   0.00000000000000E+00   0.00000000000000E+00
      6.98446004172456E-16   1.99408109836383E-20   6.98465944983440E-16   2.07846198663092E-15   0.00000000000000E+00
      0.00000000000000E+00   0.00000000000000E+00   0.00000000000000E+00   0.00000000000000E+00   0.00000000000000E+00
      0.00000000000000E+00  -1.50945644384772E-16
      4.17888888888889E-01
      0.00000000000000E+00   0.00000000000000E+00   0.00000000000000E+00   0.00000000000000E+00  -3.26438934630194E-20
     -7.04889223112090E-16  -7.04921867005553E-16  -3.07685719005729E-15   0.00000000000000E+00   0.00000000000000E+00
      0.00000000000000E+00   0.00000000000000E+00  -3.23361915172591E-19  -4.09136902104186E-28  -3.23361915581728E-19
      1.10522501367672E-15   1.25366666666667E+00   1.25366666666667E+00   0.00000000000000E+00   0.00000000000000E+00
      7.06038846890194E-16  -7.93617969058358E-19   7.05245228921135E-16   2.13255486220883E-15   0.00000000000000E+00
      0.00000000000000E+00   0.00000000000000E+00   0.00000000000000E+00   0.00000000000000E+00   0.00000000000000E+00
      0.00000000000000E+00  -1.60922685828267E-16
      4.42888888888889E-01
      0.00000000000000E+00   0.00000000000000E+00   0.00000000000000E+00   0.00000000000000E+00  -3.33663885962162E-20
     -7.13339763448969E-16  -7.13373129837565E-16  -3.12064238875414E-15   0.00000000000000E+00   0.00000000000000E+00
      0.00000000000000E+00   0.00000000000000E+00  -3.24693187666602E-19   8.24593242633279E-29  -3.24693187584142E-19
      1.10522500708971E-15   1.32866666666667E+00   1.32866666666667E+00   0.00000000000000E+00   0.00000000000000E+00
      7.14779298378963E-16  -1.08147535381236E-18   7.13697823025150E-16   2.18631523138076E-15   0.00000000000000E+00
      0.00000000000000E+00   0.00000000000000E+00   0.00000000000000E+00   0.00000000000000E+00   0.00000000000000E+00
      0.00000000000000E+00  -1.70897849716334E-16
      4.67888888888889E-01
      0.00000000000000E+00   0.00000000000000E+00   0.00000000000000E+00   0.00000000000000E+00  -3.46153783935785E-20
     -7.24749521844452E-16  -7.24784137222846E-16  -3.16412269566630E-15   0.00000000000000E+00   0.00000000000000E+00
      0.00000000000000E+00   0.00000000000000E+00  -3.25505726634652E-19   1.31511360506926E-28  -3.25505726503140E-19
      1.10522500012197E-15   1.40366666666667E+00   1.40366666666667E+00   0.00000000000000E+00   0.00000000000000E+00
      7.25086104633704E-16   2.35383156448519E-20   7.25109642949349E-16   2.23976870263322E-15   0.00000000000000E+00
      0.00000000000000E+00   0.00000000000000E+00   0.00000000000000E+00   0.00000000000000E+00   0.00000000000000E+00
      0.00000000000000E+00  -1.80871007088890E-16
      4.92888888888889E-01
      0.00000000000000E+00   0.00000000000000E+00   0.00000000000000E+00   0.00000000000000E+00  -1.75872780509218E-20
     -7.34289298564208E-16  -7.34306885842259E-16  -3.20731652788558E-15   0.00000000000000E+00   0.00000000000000E+00
      0.00000000000000E+00   0.00000000000000E+00  -3.44112216404195E-19  -1.89014643370158E-28  -3.44112216593209E-19
      1.10522499275541E-15   1.47866666666667E+00   1.47866666666667E+00   0.00000000000000E+00   0.00000000000000E+00
      7.36318371812456E-16  -1.66737375360448E-18   7.34650998058852E-16   2.29293506571815E-15   0.00000000000000E+00
      0.00000000000000E+00   0.00000000000000E+00   0.00000000000000E+00   0.00000000000000E+00   0.00000000000000E+00
      0.00000000000000E+00  -1.90843530587982E-16
      5.17888888888889E-01
      0.00000000000000E+00   0.00000000000000E+00   0.00000000000000E+00   0.00000000000000E+00  -2.84698629253455E-20
     -7.46662032400936E-16  -7.46690502263861E-16  -3.25023985758884E-15   0.00000000000000E+00   0.00000000000000E+00
      0.00000000000000E+00   0.00000000000000E+00  -3.35297586659421E-19  -1.20237885936421E-28  -3.35297586779659E-19
      1.10522498496659E-15   1.55366666666667E+00   1.55366666666667E+00   0.00000000000000E+00   0.00000000000000E+00
      7.46774516477691E-16   2.51283372949229E-19   7.47025799850640E-16   2.34583256570974E-15   0.00000000000000E+00
      0.00000000000000E+00   0.00000000000000E+00   0.00000000000000E+00   0.00000000000000E+00   0.00000000000000E+00
      0.00000000000000E+00  -2.00817693087491E-16
      5.42888888888889E-01
      0.00000000000000E+00   0.00000000000000E+00   0.00000000000000E+00   0.00000000000000E+00  -2.48746021352570E-20
     -7.56734960587310E-16  -7.56759835189445E-16  -3.29290723295326E-15   0.00000000000000E+00   0.00000000000000E+00
      0.00000000000000E+00   0.00000000000000E+00  -3.41204363705990E-19   4.42006148043583E-28  -3.41204363263984E-19
      1.10522497672822E-15   1.62866666666667E+00   1.62866666666667E+00   0.00000000000000E+00   0.00000000000000E+00
      7.57030349595427E-16   7.06899572824644E-20   7.57101039552709E-16   2.39847815598205E-15   0.00000000000000E+00
      0.00000000000000E+00   0.00000000000000E+00   0.00000000000000E+00   0.00000000000000E+00   0.00000000000000E+00
      0.00000000000000E+00  -2.10795899757009E-16
      5.67888888888889E-01
      0.00000000000000E+00   0.00000000000000E+00   0.00000000000000E+00   0.00000000000000E+00  -3.26883505480161E-20
     -7.70449913470235E-16  -7.70482601820783E-16  -3.33533033965421E-15   0.00000000000000E+00   0.00000000000000E+00
      0.00000000000000E+00   0.00000000000000E+00  -3.34867216357454E-19  -5.05266232489259E-28  -3.34867216862720E-19
      1.10522496801037E-15   1.70366666666667E+00   1.70366666666667E+00   0.00000000000000E+00   0.00000000000000E+00
      7.70796192239082E-16   2.12767985623135E-20   7.70817469037645E-16   2.45088554173069E-15   0.00000000000000E+00
      0.00000000000000E+00   0.00000000000000E+00   0.00000000000000E+00   0.00000000000000E+00   0.00000000000000E+00
      0.00000000000000E+00  -2.20780170086846E-16
      5.92888888888889E-01
      0.00000000000000E+00   0.00000000000000E+00   0.00000000000000E+00   0.00000000000000E+00  -1.96093058226478E-20
     -7.93828630149126E-16  -7.93848239454949E-16  -3.37751569105679E-15   0.00000000000000E+00   0.00000000000000E+00
      0.00000000000000E+00   0.00000000000000E+00  -3.50022574709248E-19   3.82671544618112E-28  -3.50022574326576E-19
      1.10522495878236E-15   1.77866666666667E+00   1.77866666666667E+00   0.00000000000000E+00   0.00000000000000E+00
      7.93308581235456E-16   8.89680793819919E-19   7.94198262029276E-16   2.50306270185295E-15   0.00000000000000E+00
      0.00000000000000E+00   0.00000000000000E+00   0.00000000000000E+00   0.00000000000000E+00   0.00000000000000E+00
      0.00000000000000E+00  -2.30771969578518E-16
      6.17888888888889E-01
      0.00000000000000E+00   0.00000000000000E+00   0.00000000000000E+00   0.00000000000000E+00  -1.49762826514943E-20
     -8.26920782939110E-16  -8.26935759221761E-16  -3.41946286395770E-15   0.00000000000000E+00   0.00000000000000E+00
      0.00000000000000E+00   0.00000000000000E+00  -3.43624705404290E-19  -2.43968680766609E-28  -3.43624705648259E-19
      1.10522494901095E-15   1.85366666666667E+00   1.85366666666667E+00   0.00000000000000E+00   0.00000000000000E+00
      8.29243331278112E-16  -1.96394735070404E-18   8.27279383927408E-16   2.55501017281468E-15   0.00000000000000E+00
      0.00000000000000E+00   0.00000000000000E+00   0.00000000000000E+00   0.00000000000000E+00   0.00000000000000E+00
      0.00000000000000E+00  -2.40772257867927E-16
      6.42888888888889E-01
      0.00000000000000E+00   0.00000000000000E+00   0.00000000000000E+00   0.00000000000000E+00  -2.87808584713268E-20
     -8.74205752868358E-16  -8.74234533726829E-16  -3.46116375720656E-15   0.00000000000000E+00   0.00000000000000E+00
      0.00000000000000E+00   0.00000000000000E+00  -3.42681824289108E-19  -8.86738835665208E-28  -3.42681825175847E-19
      1.10522493866241E-15   1.92866666666667E+00   1.92866666666667E+00   0.00000000000000E+00   0.00000000000000E+00
      8.75581231447769E-16  -1.00401589576393E-18   8.74577215552005E-16   2.60672041990716E-15   0.00000000000000E+00
      0.00000000000000E+00   0.00000000000000E+00   0.00000000000000E+00   0.00000000000000E+00   0.00000000000000E+00
      0.00000000000000E+00  -2.50781601363004E-16
      6.67888888888889E-01
      0.00000000000000E+00   0.00000000000000E+00   0.00000000000000E+00   0.00000000000000E+00  -3.87217042585914E-20
     -9.18792088015242E-16  -9.18830809719501E-16  -3.50260244402483E-15   0.00000000000000E+00   0.00000000000000E+00
      0.00000000000000E+00   0.00000000000000E+00  -3.37057492775010E-19   5.08301629637625E-28  -3.37057492266708E-19
      1.10522492770174E-15   2.00366666666667E+00   2.00366666666667E+00   0.00000000000000E+00   0.00000000000000E+00
      9.19147330102819E-16   2.05371089489441E-20   9.19167867211768E-16   2.65817778741452E-15   0.00000000000000E+00
      0.00000000000000E+00   0.00000000000000E+00   0.00000000000000E+00   0.00000000000000E+00   0.00000000000000E+00
      0.00000000000000E+00  -2.60800271091423E-16
      6.92888888888889E-01
      0.00000000000000E+00   0.00000000000000E+00   0.00000000000000E+00   0.00000000000000E+00  -2.83863805386250E-20
     -9.50256106002182E-16  -9.50284492382721E-16  -3.54375494605658E-15   0.00000000000000E+00   0.00000000000000E+00
      0.00000000000000E+00   0.00000000000000E+00  -3.49319860974353E-19  -2.70182646868825E-28  -3.49319861244535E-19
      1.10522491609303E-15   2.07866666666667E+00   2.07866666666667E+00   0.00000000000000E+00   0.00000000000000E+00
      9.50613412062080E-16   2.04001818867698E-20   9.50633812243967E-16   2.70935833729847E-15   0.00000000000000E+00
      0.00000000000000E+00   0.00000000000000E+00   0.00000000000000E+00   0.00000000000000E+00   0.00000000000000E+00
      0.00000000000000E+00  -2.70828307334916E-16
      7.17888888888889E-01
      0.00000000000000E+00   0.00000000000000E+00   0.00000000000000E+00   0.00000000000000E+00  -3.09623557379447E-20
     -9.71588839393453E-16  -9.71619801749191E-16  -3.58458850430947E-15   0.00000000000000E+00   0.00000000000000E+00
      0.00000000000000E+00   0.00000000000000E+00  -3.48568529382630E-19   6.44350781686637E-28  -3.48568528738279E-19
      1.10522490380015E-15   2.15366666666667E+00   2.15366666666667E+00   0.00000000000000E+00   0.00000000000000E+00
      9.71948236207141E-16   2.01340707898134E-20   9.71968370277931E-16   2.76022916034177E-15   0.00000000000000E+00
      0.00000000000000E+00   0.00000000000000E+00   0.00000000000000E+00   0.00000000000000E+00   0.00000000000000E+00
      0.00000000000000E+00  -2.80865559832452E-16
      7.42888888888889E-01
      0.00000000000000E+00   0.00000000000000E+00   0.00000000000000E+00   0.00000000000000E+00  -1.99658424959167E-20
     -9.89045535987411E-16  -9.89065501829907E-16  -3.62506041637212E-15   0.00000000000000E+00   0.00000000000000E+00
      0.00000000000000E+00   0.00000000000000E+00  -3.61639135360140E-19  -1.05547703444252E-28  -3.61639135465688E-19
      1.10522489078686E-15   2.22866666666667E+00   2.22866666666667E+00   0.00000000000000E+00   0.00000000000000E+00
      9.89407004997797E-16   2.01359675743549E-20   9.89427140965371E-16   2.81074724296333E-15   0.00000000000000E+00
      0.00000000000000E+00   0.00000000000000E+00   0.00000000000000E+00   0.00000000000000E+00   0.00000000000000E+00
      0.00000000000000E+00  -2.90911717378065E-16
      7.67888888888889E-01
      0.00000000000000E+00   0.00000000000000E+00   0.00000000000000E+00   0.00000000000000E+00  -3.22793472465412E-20
     -1.00597945636474E-15  -1.00601173571199E-15  -3.66511738774255E-15   0.00000000000000E+00   0.00000000000000E+00
      0.00000000000000E+00   0.00000000000000E+00  -3.51164335838492E-19  -2.24789093385417E-28  -3.51164336063281E-19
      1.10522487701607E-15   2.30366666666667E+00   2.30366666666667E+00   0.00000000000000E+00   0.00000000000000E+00
      1.00634276210761E-15   2.01379404434419E-20   1.00636290004805E-15   2.86085884762368E-15   0.00000000000000E+00
      0.00000000000000E+00   0.00000000000000E+00   0.00000000000000E+00   0.00000000000000E+00   0.00000000000000E+00
      0.00000000000000E+00  -3.00966336897203E-16
      7.92888888888889E-01
      0.00000000000000E+00   0.00000000000000E+00   0.00000000000000E+00   0.00000000000000E+00  -2.98726166930439E-20
     -1.02140064422984E-15  -1.02143051684654E-15  -3.70469792039930E-15   0.00000000000000E+00   0.00000000000000E+00
      0.00000000000000E+00   0.00000000000000E+00  -3.55481885049258E-19  -2.23323709633685E-29  -3.55481885071590E-19
      1.10522486245414E-15   2.37866666666667E+00   2.37866666666667E+00   0.00000000000000E+00   0.00000000000000E+00
      1.02176585895934E-15   2.01397722672551E-20   1.02178599873161E-15   2.91050193546697E-15   0.00000000000000E+00
      0.00000000000000E+00   0.00000000000000E+00   0.00000000000000E+00   0.00000000000000E+00   0.00000000000000E+00
      0.00000000000000E+00  -3.11028877521806E-16
      8.17888888888889E-01
      0.00000000000000E+00   0.00000000000000E+00   0.00000000000000E+00   0.00000000000000E+00  -3.41201405177392E-20
     -1.03381583031525E-15  -1.03384995045577E-15  -3.74374197361827E-15   0.00000000000000E+00   0.00000000000000E+00
      0.00000000000000E+00   0.00000000000000E+00  -3.53156719757719E-19  -7.51355250598849E-28  -3.53156720509074E-19
      1.10522484706617E-15   2.45366666666667E+00   2.45366666666667E+00   0.00000000000000E+00   0.00000000000000E+00
      1.03418296564713E-15   2.01415291506835E-20   1.03420310717628E-15   2.95961586918321E-15   0.00000000000000E+00
      0.00000000000000E+00   0.00000000000000E+00   0.00000000000000E+00   0.00000000000000E+00   0.00000000000000E+00
      0.00000000000000E+00  -3.21098742631102E-16
      8.42888888888889E-01
      0.00000000000000E+00   0.00000000000000E+00   0.00000000000000E+00   0.00000000000000E+00  -2.66744959239863E-20
     -1.04388514446250E-15  -1.04391181895843E-15  -3.78221017936751E-15   0.00000000000000E+00   0.00000000000000E+00
      0.00000000000000E+00   0.00000000000000E+00  -3.62533179862972E-19   5.46554418790127E-29  -3.62533179808317E-19
      1.10522483081926E-15   2.52866666666667E+00   2.52866666666667E+00   0.00000000000000E+00   0.00000000000000E+00
      1.04425420892584E-15   2.01432123942733E-20   1.04427435213824E-15   3.00816067991825E-15   0.00000000000000E+00
      0.00000000000000E+00   0.00000000000000E+00   0.00000000000000E+00   0.00000000000000E+00   0.00000000000000E+00
      0.00000000000000E+00  -3.31175331369995E-16
      8.67888888888889E-01
      0.00000000000000E+00   0.00000000000000E+00   0.00000000000000E+00   0.00000000000000E+00  -4.65844510747191E-20