DF-ISE text

Info {
  version   = 1.0
  type      = xyplot
  datasets  = [
    "time"
    "substrate OuterVoltage" "substrate InnerVoltage" "substrate QuasiFermiPotential" "substrate DisplacementCurrent" "substrate eCurrent"
    "substrate hCurrent" "substrate TotalCurrent" "substrate Charge" "source OuterVoltage" "source InnerVoltage"
    "source QuasiFermiPotential" "source DisplacementCurrent" "source eCurrent" "source hCurrent" "source TotalCurrent"
    "source Charge" "drain OuterVoltage" "drain InnerVoltage" "drain QuasiFermiPotential" "drain DisplacementCurrent"
    "drain eCurrent" "drain hCurrent" "drain TotalCurrent" "drain Charge" "gate OuterVoltage"
    "gate InnerVoltage" "gate QuasiFermiPotential" "gate DisplacementCurrent" "gate eCurrent" "gate hCurrent"
    "gate TotalCurrent" "gate Charge" ]
  functions = [
    Time
    OuterVoltage InnerVoltage QuasiFermiPotential DisplacementCurrent eCurrent
    hCurrent TotalCurrent Charge OuterVoltage InnerVoltage
    QuasiFermiPotential DisplacementCurrent eCurrent hCurrent TotalCurrent
    Charge OuterVoltage InnerVoltage QuasiFermiPotential DisplacementCurrent
    eCurrent hCurrent TotalCurrent Charge OuterVoltage
    InnerVoltage QuasiFermiPotential DisplacementCurrent eCurrent hCurrent
    TotalCurrent Charge ]
}

Data {
      0.00000000000000E+00
      0.00000000000000E+00   0.00000000000000E+00   0.00000000000000E+00   0.00000000000000E+00  -1.62142466749554E-17
     -7.42019083408058E-28  -1.62142466756975E-17  -9.16143207979551E-15   0.00000000000000E+00   0.00000000000000E+00
      0.00000000000000E+00   0.00000000000000E+00   8.21571898986344E-18   6.01988112759878E-28   8.21571899046543E-18
      2.62339488898648E-15   0.00000000000000E+00   0.00000000000000E+00   0.00000000000000E+00   0.00000000000000E+00
      7.99852768509309E-18   1.38932955854842E-28   7.99852768523202E-18   2.62339488898648E-15   3.00000000000000E+00
      3.00000000000000E+00   0.00000000000000E+00   0.00000000000000E+00   0.00000000000000E+00   0.00000000000000E+00
      0.00000000000000E+00   3.91464230182257E-15
      1.00000000000000E-02
      0.00000000000000E+00   0.00000000000000E+00   0.00000000000000E+00   0.00000000000000E+00  -1.79946705698527E-17
     -8.98654793115976E-17  -1.07860149881450E-16  -9.20253925132587E-15   0.00000000000000E+00   0.00000000000000E+00
      0.00000000000000E+00   0.00000000000000E+00  -1.70809891521231E-06  -1.85345239262042E-25  -1.70809891521231E-06
      2.62338422593854E-15   3.00000000000000E-02   3.00000000000000E-02   0.00000000000000E+00   0.00000000000000E+00
      1.70809891532013E-06   4.08180739416886E-20   1.70809891532017E-06   2.68514210188614E-15   3.00000000000000E+00
      3.00000000000000E+00   0.00000000000000E+00   0.00000000000000E+00   0.00000000000000E+00   0.00000000000000E+00
      0.00000000000000E+00   3.89401292350118E-15
      2.33333333333333E-02
      0.00000000000000E+00   0.00000000000000E+00   0.00000000000000E+00   0.00000000000000E+00   1.04198473687178E-17
     -1.69328186756450E-16  -1.58908339387732E-16  -9.25866632308746E-15   0.00000000000000E+00   0.00000000000000E+00
      0.00000000000000E+00   0.00000000000000E+00  -3.51042392597947E-06  -3.46095959564720E-25  -3.51042392597947E-06
      2.62337252584991E-15   7.00000000000000E-02   7.00000000000000E-02   0.00000000000000E+00   0.00000000000000E+00
      3.51042392613824E-06   1.31953219289041E-19   3.51042392613837E-06   2.76700082682820E-15   3.00000000000000E+00
      3.00000000000000E+00   0.00000000000000E+00   0.00000000000000E+00   0.00000000000000E+00   0.00000000000000E+00
      0.00000000000000E+00   3.86829297040937E-15
      4.24444444444445E-02
      0.00000000000000E+00   0.00000000000000E+00   0.00000000000000E+00   0.00000000000000E+00  -2.43834254587690E-17
     -2.58371205425575E-16  -2.82754630884344E-16  -9.34288327641762E-15   0.00000000000000E+00   0.00000000000000E+00
      0.00000000000000E+00   0.00000000000000E+00  -5.24611726066927E-06  -4.31586569097684E-24  -5.24611726066927E-06
      2.62336078760341E-15   1.27333333333333E-01   1.27333333333333E-01   0.00000000000000E+00   0.00000000000000E+00
      5.24611726095196E-06   5.95278163297243E-20   5.24611726095202E-06   2.88350926444999E-15   3.00000000000000E+00
      3.00000000000000E+00   0.00000000000000E+00   0.00000000000000E+00   0.00000000000000E+00   0.00000000000000E+00
      0.00000000000000E+00   3.83601322436422E-15
      6.74444444444444E-02
      0.00000000000000E+00   0.00000000000000E+00   0.00000000000000E+00   0.00000000000000E+00  -9.64136680778007E-18
     -3.79140340150043E-16  -3.88781706957823E-16  -9.46202888774397E-15   0.00000000000000E+00   0.00000000000000E+00
      0.00000000000000E+00   0.00000000000000E+00  -6.32991572721758E-06  -6.21887818646009E-25  -6.32991572721758E-06
      2.62335321189915E-15   2.02333333333333E-01   2.02333333333333E-01   0.00000000000000E+00   0.00000000000000E+00
      6.32991572760633E-06   3.58544896767346E-20   6.32991572760636E-06   3.03455231970749E-15   3.00000000000000E+00
      3.00000000000000E+00   0.00000000000000E+00   0.00000000000000E+00   0.00000000000000E+00   0.00000000000000E+00
      0.00000000000000E+00   3.80412335613735E-15
      9.24444444444444E-02
      0.00000000000000E+00   0.00000000000000E+00   0.00000000000000E+00   0.00000000000000E+00   3.81194030164794E-18
     -5.22918583070266E-16  -5.19106642768618E-16  -9.59053171180771E-15   0.00000000000000E+00   0.00000000000000E+00
      0.00000000000000E+00   0.00000000000000E+00  -6.64721632983868E-06  -6.66495487147244E-25  -6.64721632983868E-06
      2.62335095707842E-15   2.77333333333333E-01   2.77333333333333E-01   0.00000000000000E+00   0.00000000000000E+00
      6.64721633035774E-06   4.19486383654476E-20   6.64721633035778E-06   3.18401101427852E-15   3.00000000000000E+00
      3.00000000000000E+00   0.00000000000000E+00   0.00000000000000E+00   0.00000000000000E+00   0.00000000000000E+00
      0.00000000000000E+00   3.78316974045077E-15
      1.17444444444444E-01
      0.00000000000000E+00   0.00000000000000E+00   0.00000000000000E+00   0.00000000000000E+00  -2.90486561623919E-18
     -6.88970736655543E-16  -6.91875602271782E-16  -9.72255928119898E-15   0.00000000000000E+00   0.00000000000000E+00
      0.00000000000000E+00   0.00000000000000E+00  -6.74411811630846E-06  -6.68077574632370E-25  -6.74411811630846E-06
      2.62335026509100E-15   3.52333333333333E-01   3.52333333333333E-01   0.00000000000000E+00   0.00000000000000E+00
      6.74411811700029E-06   4.37609543184629E-20   6.74411811700033E-06   3.33170871068948E-15   3.00000000000000E+00
      3.00000000000000E+00   0.00000000000000E+00   0.00000000000000E+00   0.00000000000000E+00   0.00000000000000E+00
      0.00000000000000E+00   3.76750030541849E-15
      1.42444444444444E-01
      0.00000000000000E+00   0.00000000000000E+00   0.00000000000000E+00   0.00000000000000E+00  -5.52735617033503E-17
     -8.80310629571295E-16  -9.35584191274645E-16  -9.85453759595300E-15   0.00000000000000E+00   0.00000000000000E+00
      0.00000000000000E+00   0.00000000000000E+00  -6.79866285506068E-06  -6.76744063891286E-25  -6.79866285506068E-06
      2.62334987488215E-15   4.27333333333333E-01   4.27333333333333E-01   0.00000000000000E+00   0.00000000000000E+00
      6.79866285599621E-06   4.74176539095734E-20   6.79866285599626E-06   3.47733520572167E-15   3.00000000000000E+00
      3.00000000000000E+00   0.00000000000000E+00   0.00000000000000E+00   0.00000000000000E+00   0.00000000000000E+00
      0.00000000000000E+00   3.75385251534919E-15
      1.67444444444444E-01
      0.00000000000000E+00   0.00000000000000E+00   0.00000000000000E+00   0.00000000000000E+00   2.10130929006567E-18
     -1.10301889922351E-15  -1.10091758993344E-15  -9.98520123856335E-15   0.00000000000000E+00   0.00000000000000E+00
      0.00000000000000E+00   0.00000000000000E+00  -6.83744938670976E-06  -6.72228827237391E-25  -6.83744938670976E-06
      2.62334959709976E-15   5.02333333333333E-01   5.02333333333333E-01   0.00000000000000E+00   0.00000000000000E+00
      6.83744938781061E-06   5.99095584840134E-20   6.83744938781067E-06   3.62044452291015E-15   3.00000000000000E+00
      3.00000000000000E+00   0.00000000000000E+00   0.00000000000000E+00   0.00000000000000E+00   0.00000000000000E+00
      0.00000000000000E+00   3.74140711855343E-15
      1.92444444444444E-01
      0.00000000000000E+00   0.00000000000000E+00   0.00000000000000E+00   0.00000000000000E+00   2.98497996070542E-18
     -1.35884138235125E-15  -1.35585640239054E-15  -1.01135720829583E-14   0.00000000000000E+00   0.00000000000000E+00
      0.00000000000000E+00   0.00000000000000E+00  -6.86833184349766E-06  -6.75940028464352E-25  -6.86833184349766E-06
      2.62334937574258E-15   5.77333333333333E-01   5.77333333333333E-01   0.00000000000000E+00   0.00000000000000E+00
      6.86833184485345E-06   6.34913038130758E-20   6.86833184485351E-06   3.76045733351663E-15   3.00000000000000E+00
      3.00000000000000E+00   0.00000000000000E+00   0.00000000000000E+00   0.00000000000000E+00   0.00000000000000E+00
      0.00000000000000E+00   3.72976537369909E-15
      2.17444444444444E-01
      0.00000000000000E+00   0.00000000000000E+00   0.00000000000000E+00   0.00000000000000E+00  -1.10934539374204E-17
     -1.63789773237189E-15  -1.64899118630931E-15  -1.02387461124772E-14   0.00000000000000E+00   0.00000000000000E+00
      0.00000000000000E+00   0.00000000000000E+00  -6.89461998915445E-06  -6.81208332068602E-25  -6.89461998915445E-06
      2.62334918718867E-15   6.52333333333333E-01   6.52333333333333E-01   0.00000000000000E+00   0.00000000000000E+00
      6.89461999080340E-06   3.80999793901512E-20   6.89461999080344E-06   3.89670360086755E-15   3.00000000000000E+00
      3.00000000000000E+00   0.00000000000000E+00   0.00000000000000E+00   0.00000000000000E+00   0.00000000000000E+00
      0.00000000000000E+00   3.71869332442103E-15
      2.42444444444444E-01
      0.00000000000000E+00   0.00000000000000E+00   0.00000000000000E+00   0.00000000000000E+00   1.10739752888774E-15
     -1.87176657277035E-15  -7.64369043882609E-16  -1.03599841194913E-14   0.00000000000000E+00   0.00000000000000E+00
      0.00000000000000E+00   0.00000000000000E+00  -6.91791296618719E-06  -6.80406825640908E-25  -6.91791296618719E-06
      2.62334902001981E-15   7.27333333333333E-01   7.27333333333333E-01   0.00000000000000E+00   0.00000000000000E+00
      6.91791296695151E-06   4.97137955645298E-20   6.91791296695155E-06   4.02856342922417E-15   3.00000000000000E+00
      3.00000000000000E+00   0.00000000000000E+00   0.00000000000000E+00   0.00000000000000E+00   0.00000000000000E+00
      0.00000000000000E+00   3.70807167024734E-15
      2.67444444444444E-01
      0.00000000000000E+00   0.00000000000000E+00   0.00000000000000E+00   0.00000000000000E+00   7.00219332325926E-18
     -2.01541915567999E-15  -2.00841696235673E-15  -1.04769848668098E-14   0.00000000000000E+00   0.00000000000000E+00
      0.00000000000000E+00   0.00000000000000E+00  -6.93876939436119E-06  -6.83054356443367E-25  -6.93876939436119E-06
      2.62334887025935E-15   8.02333333333333E-01   8.02333333333333E-01   0.00000000000000E+00   0.00000000000000E+00
      6.93876939636955E-06   5.96317998577892E-20   6.93876939636961E-06   4.15572265283452E-15   3.00000000000000E+00
      3.00000000000000E+00   0.00000000000000E+00   0.00000000000000E+00   0.00000000000000E+00   0.00000000000000E+00
      0.00000000000000E+00   3.69791334371588E-15
      2.92444444444444E-01
      0.00000000000000E+00   0.00000000000000E+00   0.00000000000000E+00   0.00000000000000E+00   1.00150352313560E-14
     -2.10273970295949E-15   7.91229552839652E-15  -1.05901243028777E-14   0.00000000000000E+00   0.00000000000000E+00
      0.00000000000000E+00   0.00000000000000E+00  -6.95730994347545E-06  -6.83561468753533E-25  -6.95730994347545E-06
      2.62334873706608E-15   8.77333333333333E-01   8.77333333333333E-01   0.00000000000000E+00   0.00000000000000E+00
      6.95730993556310E-06   4.88272736239661E-20   6.95730993556315E-06   4.27846321346164E-15   3.00000000000000E+00
      3.00000000000000E+00   0.00000000000000E+00   0.00000000000000E+00   0.00000000000000E+00   0.00000000000000E+00
      0.00000000000000E+00   3.68831235234996E-15
      3.17444444444444E-01
      0.00000000000000E+00   0.00000000000000E+00   0.00000000000000E+00   0.00000000000000E+00   4.60742958244645E-18
     -2.16425198366635E-15  -2.15964455408390E-15  -1.07005041345700E-14   0.00000000000000E+00   0.00000000000000E+00
      0.00000000000000E+00   0.00000000000000E+00  -6.97348322690261E-06  -6.85361954343891E-25  -6.97348322690261E-06
      2.62334862083125E-15   9.52333333333333E-01   9.52333333333333E-01   0.00000000000000E+00   0.00000000000000E+00
      6.97348322906219E-06   5.39156367063355E-20   6.97348322906225E-06   4.39774157416231E-15   3.00000000000000E+00
      3.00000000000000E+00   0.00000000000000E+00   0.00000000000000E+00   0.00000000000000E+00   0.00000000000000E+00
      0.00000000000000E+00   3.67941393957644E-15
      3.42444444444444E-01
      0.00000000000000E+00   0.00000000000000E+00   0.00000000000000E+00   0.00000000000000E+00   4.99897032621324E-16
     -2.20865761552476E-15  -1.70876058290343E-15  -1.08095095406950E-14   0.00000000000000E+00   0.00000000000000E+00
      0.00000000000000E+00   0.00000000000000E+00  -6.98731061953877E-06  -6.88453445286580E-25  -6.98731061953877E-06
      2.62334852142067E-15   1.02733333333333E+00   1.02733333333333E+00   0.00000000000000E+00   0.00000000000000E+00
      6.98731062124747E-06   4.91906172652710E-20   6.98731062124752E-06   4.51481596755699E-15   3.00000000000000E+00
      3.00000000000000E+00   0.00000000000000E+00   0.00000000000000E+00   0.00000000000000E+00   0.00000000000000E+00
      0.00000000000000E+00   3.67134505171732E-15
      3.67444444444445E-01
      0.00000000000000E+00   0.00000000000000E+00   0.00000000000000E+00   0.00000000000000E+00   2.65654776800504E-18
     -2.24022181126343E-15  -2.23756526349543E-15  -1.09182176199866E-14   0.00000000000000E+00   0.00000000000000E+00
      0.00000000000000E+00   0.00000000000000E+00  -6.99904649347607E-06  -6.87338795888837E-25  -6.99904649347607E-06
      2.62334843702132E-15   1.10233333333333E+00   1.10233333333333E+00   0.00000000000000E+00   0.00000000000000E+00
      6.99904649571357E-06   6.00528582467209E-20   6.99904649571363E-06   4.63074025612520E-15   3.00000000000000E+00
      3.00000000000000E+00   0.00000000000000E+00   0.00000000000000E+00   0.00000000000000E+00   0.00000000000000E+00
      0.00000000000000E+00   3.66412892684006E-15
      3.92444444444445E-01
      0.00000000000000E+00   0.00000000000000E+00   0.00000000000000E+00   0.00000000000000E+00  -1.30340814601428E-18
     -2.26321508236399E-15  -2.26451849051000E-15  -1.10271443559516E-14   0.00000000000000E+00   0.00000000000000E+00
      0.00000000000000E+00   0.00000000000000E+00  -7.00916321542698E-06  -6.89984658332121E-25  -7.00916321542698E-06
      2.62334836424738E-15   1.17733333333333E+00   1.17733333333333E+00   0.00000000000000E+00   0.00000000000000E+00
      7.00916321769145E-06   3.98758609058000E-20   7.00916321769149E-06   4.74614770249714E-15   3.00000000000000E+00
      3.00000000000000E+00   0.00000000000000E+00   0.00000000000000E+00   0.00000000000000E+00   0.00000000000000E+00
      0.00000000000000E+00   3.65764828920708E-15
      4.17444444444445E-01
      0.00000000000000E+00   0.00000000000000E+00   0.00000000000000E+00   0.00000000000000E+00   3.54565745517837E-18
     -2.28156006267520E-15  -2.27801440522002E-15  -1.11363088989785E-14   0.00000000000000E+00   0.00000000000000E+00
      0.00000000000000E+00   0.00000000000000E+00  -7.01820068813325E-06  -6.88012715081331E-25  -7.01820068813325E-06
      2.62334829922221E-15   1.25233333333333E+00   1.25233333333333E+00   0.00000000000000E+00   0.00000000000000E+00
      7.01820069041124E-06   1.66680492668352E-20   7.01820069041126E-06   4.86127237820694E-15   3.00000000000000E+00
      3.00000000000000E+00   0.00000000000000E+00   0.00000000000000E+00   0.00000000000000E+00   0.00000000000000E+00
      0.00000000000000E+00   3.65168822154935E-15
      4.42444444444445E-01
      0.00000000000000E+00   0.00000000000000E+00   0.00000000000000E+00   0.00000000000000E+00  -3.32962089915658E-18
     -2.29803247345595E-15  -2.30136209435511E-15  -1.12454559001929E-14   0.00000000000000E+00   0.00000000000000E+00
      0.00000000000000E+00   0.00000000000000E+00  -7.02662924954629E-06  -6.89871686606114E-25  -7.02662924954629E-06
      2.62334823856565E-15   1.32733333333333E+00   1.32733333333333E+00   0.00000000000000E+00   0.00000000000000E+00
      7.02662925184759E-06   5.86577503982011E-20   7.02662925184765E-06   4.97608974309360E-15   3.00000000000000E+00
      3.00000000000000E+00   0.00000000000000E+00   0.00000000000000E+00   0.00000000000000E+00   0.00000000000000E+00
      0.00000000000000E+00   3.64601791853368E-15
      4.67444444444445E-01
      0.00000000000000E+00   0.00000000000000E+00   0.00000000000000E+00   0.00000000000000E+00  -3.33359252805856E-18
     -2.31295373019993E-15  -2.31628732272799E-15  -1.13544042194310E-14   0.00000000000000E+00   0.00000000000000E+00
      0.00000000000000E+00   0.00000000000000E+00  -7.03469945889558E-06  -6.90003607964621E-25  -7.03469945889558E-06
      2.62334818047665E-15   1.40233333333333E+00   1.40233333333333E+00   0.00000000000000E+00   0.00000000000000E+00
      7.03469946121181E-06   5.91298376986466E-20   7.03469946121187E-06   5.09054795531016E-15   3.00000000000000E+00
      3.00000000000000E+00   0.00000000000000E+00   0.00000000000000E+00   0.00000000000000E+00   0.00000000000000E+00
      0.00000000000000E+00   3.64050808364417E-15
      4.92444444444445E-01
      0.00000000000000E+00   0.00000000000000E+00   0.00000000000000E+00   0.00000000000000E+00   2.99765894156858E-17
     -2.32684704169709E-15  -2.29687045228140E-15  -1.14631190594101E-14   0.00000000000000E+00   0.00000000000000E+00
      0.00000000000000E+00   0.00000000000000E+00  -7.04247343148137E-06  -6.92676089818135E-25  -7.04247343148137E-06
      2.62334812450945E-15   1.47733333333333E+00   1.47733333333333E+00   0.00000000000000E+00   0.00000000000000E+00
      7.04247343377818E-06   5.97233175691100E-20   7.04247343377824E-06   5.20463755325412E-15   3.00000000000000E+00
      3.00000000000000E+00   0.00000000000000E+00   0.00000000000000E+00   0.00000000000000E+00   0.00000000000000E+00
      0.00000000000000E+00   3.63513338164655E-15
      5.17444444444445E-01
      0.00000000000000E+00   0.00000000000000E+00   0.00000000000000E+00   0.00000000000000E+00   8.13202562933771E-17
     -2.34343023621474E-15  -2.26210997992136E-15  -1.15716183506429E-14   0.00000000000000E+00   0.00000000000000E+00
      0.00000000000000E+00   0.00000000000000E+00  -7.04994162630078E-06  -6.93611586893271E-25  -7.04994162630078E-06
      2.62334807073393E-15   1.55233333333333E+00   1.55233333333333E+00   0.00000000000000E+00   0.00000000000000E+00
      7.04994162856282E-06   5.97337441815455E-20   7.04994162856288E-06   5.31835946931281E-15   3.00000000000000E+00
      3.00000000000000E+00   0.00000000000000E+00   0.00000000000000E+00   0.00000000000000E+00   0.00000000000000E+00
      0.00000000000000E+00   3.62991081059612E-15
      5.42444444444445E-01
      0.00000000000000E+00   0.00000000000000E+00   0.00000000000000E+00   0.00000000000000E+00   4.07202477874186E-17
     -2.37022419324282E-15  -2.32950394545540E-15  -1.16799094585660E-14   0.00000000000000E+00   0.00000000000000E+00
      0.00000000000000E+00   0.00000000000000E+00  -7.05709481551117E-06  -6.92488121846960E-25  -7.05709481551117E-06
      2.62334801921772E-15   1.62733333333333E+00   1.62733333333333E+00   0.00000000000000E+00   0.00000000000000E+00
      7.05709481784061E-06   5.97438363702894E-20   7.05709481784067E-06   5.43170526963010E-15   3.00000000000000E+00
      3.00000000000000E+00   0.00000000000000E+00   0.00000000000000E+00   0.00000000000000E+00   0.00000000000000E+00
      0.00000000000000E+00   3.62485616971818E-15
      5.67444444444445E-01
      0.00000000000000E+00   0.00000000000000E+00   0.00000000000000E+00   0.00000000000000E+00   1.38466074019869E-17
     -2.41788951607850E-15  -2.40404290867651E-15  -1.17879476102430E-14   0.00000000000000E+00   0.00000000000000E+00
      0.00000000000000E+00   0.00000000000000E+00  -7.06396969763741E-06  -6.94990654554560E-25  -7.06396969763741E-06
      2.62334796969760E-15   1.70233333333333E+00   1.70233333333333E+00   0.00000000000000E+00   0.00000000000000E+00
      7.06396970004139E-06   5.97536081383194E-20   7.06396970004145E-06   5.54464716584193E-15   3.00000000000000E+00
      3.00000000000000E+00   0.00000000000000E+00   0.00000000000000E+00   0.00000000000000E+00   0.00000000000000E+00
      0.00000000000000E+00   3.61995247470351E-15
      5.92444444444445E-01
      0.00000000000000E+00   0.00000000000000E+00   0.00000000000000E+00   0.00000000000000E+00  -2.41666524783973E-18
     -2.49879921245973E-15  -2.50121587770757E-15  -1.18956334672378E-14   0.00000000000000E+00   0.00000000000000E+00
      0.00000000000000E+00   0.00000000000000E+00  -7.07064711128043E-06  -6.96543133553830E-25  -7.07064711128043E-06
      2.62334792159213E-15   1.77733333333333E+00   1.77733333333333E+00   0.00000000000000E+00   0.00000000000000E+00
      7.07064711378158E-06   5.97630846529251E-20   7.07064711378164E-06   5.65713630833965E-15   3.00000000000000E+00
      3.00000000000000E+00   0.00000000000000E+00   0.00000000000000E+00   0.00000000000000E+00   0.00000000000000E+00
      0.00000000000000E+00   3.61514923730598E-15
      6.17444444444445E-01
      0.00000000000000E+00   0.00000000000000E+00   0.00000000000000E+00   0.00000000000000E+00   1.05786084987504E-17
     -2.62155127294842E-15  -2.61097266444967E-15  -1.20028519566979E-14   0.00000000000000E+00   0.00000000000000E+00
      0.00000000000000E+00   0.00000000000000E+00  -7.07720487336839E-06  -6.94951898365887E-25  -7.07720487336839E-06
      2.62334787434124E-15   1.85233333333333E+00   1.85233333333333E+00   0.00000000000000E+00   0.00000000000000E+00
      7.07720487597930E-06   5.97722886388438E-20   7.07720487597936E-06   5.76910930376879E-15   3.00000000000000E+00
      3.00000000000000E+00   0.00000000000000E+00   0.00000000000000E+00   0.00000000000000E+00   0.00000000000000E+00
      0.00000000000000E+00   3.61039477858785E-15
      6.42444444444445E-01
      0.00000000000000E+00   0.00000000000000E+00   0.00000000000000E+00   0.00000000000000E+00  -5.72068151630190E-19
     -2.78131775840663E-15  -2.78188982655826E-15  -1.21094965349495E-14   0.00000000000000E+00   0.00000000000000E+00
      0.00000000000000E+00   0.00000000000000E+00  -7.08368917169301E-06  -6.95122921290703E-25  -7.08368917169301E-06
      2.62334782761244E-15   1.92733333333333E+00   1.92733333333333E+00   0.00000000000000E+00   0.00000000000000E+00
      7.08368917447483E-06   5.97812380637216E-20   7.08368917447489E-06   5.88049100082500E-15   3.00000000000000E+00
      3.00000000000000E+00   0.00000000000000E+00   0.00000000000000E+00   0.00000000000000E+00   0.00000000000000E+00
      0.00000000000000E+00   3.60565770651207E-15
      6.67444444444445E-01
      0.00000000000000E+00   0.00000000000000E+00   0.00000000000000E+00   0.00000000000000E+00   4.94270474227158E-18
     -2.94866844322694E-15  -2.94372573848467E-15  -1.22154605278485E-14   0.00000000000000E+00   0.00000000000000E+00
      0.00000000000000E+00   0.00000000000000E+00  -7.09012101667219E-06  -6.99053647077843E-25  -7.09012101667219E-06
      2.62334778125456E-15   2.00233333333333E+00   2.00233333333333E+00   0.00000000000000E+00   0.00000000000000E+00
      7.09012101961585E-06   5.97899462132725E-20   7.09012101961591E-06   5.99118899084379E-15   3.00000000000000E+00
      3.00000000000000E+00   0.00000000000000E+00   0.00000000000000E+00   0.00000000000000E+00   0.00000000000000E+00
      0.00000000000000E+00   3.60092375575014E-15
      6.92444444444445E-01
      0.00000000000000E+00   0.00000000000000E+00   0.00000000000000E+00   0.00000000000000E+00   4.75433136647820E-17
     -3.08151528669757E-15  -3.03397197303278E-15  -1.23206179559833E-14   0.00000000000000E+00   0.00000000000000E+00
      0.00000000000000E+00   0.00000000000000E+00  -7.09650915116913E-06  -6.97625052589816E-25  -7.09650915116913E-06
      2.62334773520466E-15   2.07733333333333E+00   2.07733333333333E+00   0.00000000000000E+00   0.00000000000000E+00
      7.09650915420304E-06   5.97983771298519E-20   7.09650915420310E-06   6.10108300651957E-15   3.00000000000000E+00
      3.00000000000000E+00   0.00000000000000E+00   0.00000000000000E+00   0.00000000000000E+00   0.00000000000000E+00
      0.00000000000000E+00   3.59618721425911E-15
      7.17444444444445E-01
      0.00000000000000E+00   0.00000000000000E+00   0.00000000000000E+00   0.00000000000000E+00   2.75027132105253E-18
     -3.16443940753101E-15  -3.16168913620995E-15  -1.24248047881438E-14   0.00000000000000E+00   0.00000000000000E+00
      0.00000000000000E+00   0.00000000000000E+00  -7.10285741136715E-06  -6.99170453574612E-25  -7.10285741136715E-06
      2.62334768943545E-15   2.15233333333333E+00   2.15233333333333E+00   0.00000000000000E+00   0.00000000000000E+00
      7.10285741452877E-06   5.98066658710288E-20   7.10285741452883E-06   6.21001123848650E-15   3.00000000000000E+00
      3.00000000000000E+00   0.00000000000000E+00   0.00000000000000E+00   0.00000000000000E+00   0.00000000000000E+00
      0.00000000000000E+00   3.59144586022189E-15
      7.42444444444445E-01
      0.00000000000000E+00   0.00000000000000E+00   0.00000000000000E+00   0.00000000000000E+00  -2.45282501227612E-18
     -3.21310951832880E-15  -3.21556234334108E-15  -1.25278036367378E-14   0.00000000000000E+00   0.00000000000000E+00
      0.00000000000000E+00   0.00000000000000E+00  -7.10916782958944E-06  -6.99500181603861E-25  -7.10916782958944E-06
      2.62334764393225E-15   2.22733333333333E+00   2.22733333333333E+00   0.00000000000000E+00   0.00000000000000E+00
      7.10916783280494E-06   5.98146839215557E-20   7.10916783280500E-06   6.31775719455120E-15   3.00000000000000E+00
      3.00000000000000E+00   0.00000000000000E+00   0.00000000000000E+00   0.00000000000000E+00   0.00000000000000E+00
      0.00000000000000E+00   3.58669879825437E-15
      7.67444444444445E-01
      0.00000000000000E+00   0.00000000000000E+00   0.00000000000000E+00   0.00000000000000E+00   5.03317392467723E-19
     -3.24616474906023E-15  -3.24566143166776E-15  -1.26293367978495E-14   0.00000000000000E+00   0.00000000000000E+00
      0.00000000000000E+00   0.00000000000000E+00  -7.11544182889489E-06  -6.96834259473220E-25  -7.11544182889489E-06
      2.62334759868489E-15   2.30233333333333E+00   2.30233333333333E+00   0.00000000000000E+00   0.00000000000000E+00
      7.11544183214048E-06   5.98224610400553E-20   7.11544183214054E-06   6.42404359479324E-15   3.00000000000000E+00
      3.00000000000000E+00   0.00000000000000E+00   0.00000000000000E+00   0.00000000000000E+00   0.00000000000000E+00
      0.00000000000000E+00   3.58194560437137E-15
      7.92444444444445E-01
      0.00000000000000E+00   0.00000000000000E+00   0.00000000000000E+00   0.00000000000000E+00   6.96280638775776E-18
     -3.27246901094159E-15  -3.26550620455383E-15  -1.27290786130001E-14   0.00000000000000E+00   0.00000000000000E+00
      0.00000000000000E+00   0.00000000000000E+00  -7.12168062944170E-06  -7.01499059321844E-25  -7.12168062944170E-06
      2.62334755368470E-15   2.37733333333333E+00   2.37733333333333E+00   0.00000000000000E+00   0.00000000000000E+00
      7.12168063270714E-06   5.98299854967350E-20   7.12168063270720E-06   6.52854505035954E-15   3.00000000000000E+00
      3.00000000000000E+00   0.00000000000000E+00   0.00000000000000E+00   0.00000000000000E+00   0.00000000000000E+00
      0.00000000000000E+00   3.57718600895588E-15
      8.17444444444445E-01
      0.00000000000000E+00   0.00000000000000E+00   0.00000000000000E+00   0.00000000000000E+00   4.71726093046061E-18
     -3.29509394561432E-15  -3.29037668468386E-15  -1.28267034523023E-14   0.00000000000000E+00   0.00000000000000E+00
      0.00000000000000E+00   0.00000000000000E+00  -7.12788533999495E-06  -7.00760616543700E-25  -7.12788533999495E-06
      2.62334750892382E-15   2.45233333333333E+00   2.45233333333333E+00   0.00000000000000E+00   0.00000000000000E+00
      7.12788534328527E-06   5.98372389726724E-20   7.12788534328533E-06   6.63093614934464E-15   3.00000000000000E+00
      3.00000000000000E+00   0.00000000000000E+00   0.00000000000000E+00   0.00000000000000E+00   0.00000000000000E+00
      0.00000000000000E+00   3.57241979403380E-15
      8.42444444444445E-01
      0.00000000000000E+00   0.00000000000000E+00   0.00000000000000E+00   0.00000000000000E+00   9.66760485337690E-19
     -3.31463404727265E-15  -3.31366728678731E-15  -1.29219776672531E-14   0.00000000000000E+00   0.00000000000000E+00
      0.00000000000000E+00   0.00000000000000E+00  -7.13405692732858E-06  -7.00586733339917E-25  -7.13405692732858E-06
      2.62334746439536E-15   2.52733333333333E+00   2.52733333333333E+00   0.00000000000000E+00   0.00000000000000E+00
      7.13405693064218E-06   5.98442051774857E-20   7.13405693064224E-06   6.73098342769274E-15   3.00000000000000E+00
      3.00000000000000E+00   0.00000000000000E+00   0.00000000000000E+00   0.00000000000000E+00   0.00000000000000E+00
      0.00000000000000E+00   3.56764677516495E-15
      8.67444444444445E-01
      0.00000000000000E+00   0.00000000000000E+00   0.00000000000000E+00   0.00000000000000E+00   2.76784479436997E-18