DF-ISE text

Info {
  version   = 1.0
  type      = xyplot
  datasets  = [
    "time"
    "substrate OuterVoltage" "substrate InnerVoltage" "substrate QuasiFermiPotential" "substrate DisplacementCurrent" "substrate eCurrent"
    "substrate hCurrent" "substrate TotalCurrent" "substrate Charge" "source OuterVoltage" "source InnerVoltage"
    "source QuasiFermiPotential" "source DisplacementCurrent" "source eCurrent" "source hCurrent" "source TotalCurrent"
    "source Charge" "drain OuterVoltage" "drain InnerVoltage" "drain QuasiFermiPotential" "drain DisplacementCurrent"
    "drain eCurrent" "drain hCurrent" "drain TotalCurrent" "drain Charge" "gate OuterVoltage"
    "gate InnerVoltage" "gate QuasiFermiPotential" "gate DisplacementCurrent" "gate eCurrent" "gate hCurrent"
    "gate TotalCurrent" "gate Charge" ]
  functions = [
    Time
    OuterVoltage InnerVoltage QuasiFermiPotential DisplacementCurrent eCurrent
    hCurrent TotalCurrent Charge OuterVoltage InnerVoltage
    QuasiFermiPotential DisplacementCurrent eCurrent hCurrent TotalCurrent
    Charge OuterVoltage InnerVoltage QuasiFermiPotential DisplacementCurrent
    eCurrent hCurrent TotalCurrent Charge OuterVoltage
    InnerVoltage QuasiFermiPotential DisplacementCurrent eCurrent hCurrent
    TotalCurrent Charge ]
}

Data {
      0.00000000000000E+00
      0.00000000000000E+00   0.00000000000000E+00   0.00000000000000E+00   0.00000000000000E+00   5.51209938806357E-19
      1.34274688666168E-27   5.51209940149104E-19  -3.28710721339993E-15   0.00000000000000E+00   0.00000000000000E+00
      0.00000000000000E+00   0.00000000000000E+00  -2.67145112410032E-19  -1.34624534333575E-27  -2.67145113756277E-19
      1.25765046831752E-15   0.00000000000000E+00   0.00000000000000E+00   0.00000000000000E+00   0.00000000000000E+00
     -2.84064826396392E-19   3.56532040070670E-30  -2.84064826392827E-19   1.25765046831752E-15   1.00000000000000E+00
      1.00000000000000E+00   0.00000000000000E+00   0.00000000000000E+00   0.00000000000000E+00   0.00000000000000E+00
      0.00000000000000E+00   7.71806276764904E-16
      1.00000000000000E-02
      0.00000000000000E+00   0.00000000000000E+00   0.00000000000000E+00   0.00000000000000E+00   1.41104941628655E-16
     -3.01920994586684E-17   1.10912842169987E-16  -3.31765133137602E-15   0.00000000000000E+00   0.00000000000000E+00
      0.00000000000000E+00   0.00000000000000E+00  -9.63536977344107E-17  -1.49059142156683E-27  -9.63536977359013E-17
      1.25765046825396E-15   3.00000000000000E-02   3.00000000000000E-02   0.00000000000000E+00   0.00000000000000E+00
     -1.45779407181506E-17   1.87962840650346E-20  -1.45591444340856E-17   1.29145706863218E-15   1.00000000000000E+00
      1.00000000000000E+00   0.00000000000000E+00   0.00000000000000E+00   0.00000000000000E+00   0.00000000000000E+00
      0.00000000000000E+00   7.68543794489862E-16
      2.33333333333333E-02
      0.00000000000000E+00   0.00000000000000E+00   0.00000000000000E+00   0.00000000000000E+00   6.26949370050278E-19
     -6.19327910651866E-17  -6.13058416951363E-17  -3.35820023868123E-15   0.00000000000000E+00   0.00000000000000E+00
      0.00000000000000E+00   0.00000000000000E+00  -1.25225728521460E-16   8.54784305181494E-28  -1.25225728520605E-16
      1.25765046816861E-15   7.00000000000000E-02   7.00000000000000E-02   0.00000000000000E+00   0.00000000000000E+00
      1.86506270727813E-16   2.52994879283960E-20   1.86531570215741E-16   1.33632167673627E-15   1.00000000000000E+00
      1.00000000000000E+00   0.00000000000000E+00   0.00000000000000E+00   0.00000000000000E+00   0.00000000000000E+00
      0.00000000000000E+00   7.64228093776352E-16
      4.24444444444445E-02
      0.00000000000000E+00   0.00000000000000E+00   0.00000000000000E+00   0.00000000000000E+00  -2.61035215367694E-19
     -1.01855789236369E-16  -1.02116824451737E-16  -3.41593907685795E-15   0.00000000000000E+00   0.00000000000000E+00
      0.00000000000000E+00   0.00000000000000E+00  -1.28757843840019E-16  -2.40605314798271E-27  -1.28757843842425E-16
      1.25765046804459E-15   1.27333333333333E-01   1.27333333333333E-01   0.00000000000000E+00   0.00000000000000E+00
      2.30872289219668E-16   2.37907449336265E-21   2.30874668294161E-16   1.40019309690330E-15   1.00000000000000E+00
      1.00000000000000E+00   0.00000000000000E+00   0.00000000000000E+00   0.00000000000000E+00   0.00000000000000E+00
      0.00000000000000E+00   7.58095511910059E-16
      6.74444444444444E-02
      0.00000000000000E+00   0.00000000000000E+00   0.00000000000000E+00   0.00000000000000E+00   8.51429523932852E-20
     -1.56229361655505E-16  -1.56144218703112E-16  -3.49071144202084E-15   0.00000000000000E+00   0.00000000000000E+00
      0.00000000000000E+00   0.00000000000000E+00  -1.29486822790649E-16  -1.22641401558646E-27  -1.29486822791875E-16
      1.25765046787863E-15   2.02333333333333E-01   2.02333333333333E-01   0.00000000000000E+00   0.00000000000000E+00
      2.85595391694514E-16   3.56498004729730E-20   2.85631041494987E-16   1.48291939778438E-15   1.00000000000000E+00
      1.00000000000000E+00   0.00000000000000E+00   0.00000000000000E+00   0.00000000000000E+00   0.00000000000000E+00
      0.00000000000000E+00   7.50141576357823E-16
      9.24444444444444E-02
      0.00000000000000E+00   0.00000000000000E+00   0.00000000000000E+00   0.00000000000000E+00  -3.39165277169185E-19
     -2.25926464008499E-16  -2.26265629285668E-16  -3.56454473141669E-15   0.00000000000000E+00   0.00000000000000E+00
      0.00000000000000E+00   0.00000000000000E+00  -1.30080830186072E-16   1.08560440106443E-28  -1.30080830185964E-16
      1.25765046770778E-15   2.77333333333333E-01   2.77333333333333E-01   0.00000000000000E+00   0.00000000000000E+00
      3.56303698939547E-16   4.27605320852447E-20   3.56346459471632E-16   1.56465222874759E-15   1.00000000000000E+00
      1.00000000000000E+00   0.00000000000000E+00   0.00000000000000E+00   0.00000000000000E+00   0.00000000000000E+00
      0.00000000000000E+00   7.42242034961317E-16
      1.17444444444444E-01
      0.00000000000000E+00   0.00000000000000E+00   0.00000000000000E+00   0.00000000000000E+00   8.11935317369017E-20
     -3.15695458061009E-16  -3.15614264529272E-16  -3.63738290763104E-15   0.00000000000000E+00   0.00000000000000E+00
      0.00000000000000E+00   0.00000000000000E+00  -1.31256363966191E-16  -4.20398524810554E-28  -1.31256363966611E-16
      1.25765046753163E-15   3.52333333333333E-01   3.52333333333333E-01   0.00000000000000E+00   0.00000000000000E+00
      4.46842141703863E-16   2.84867920198300E-20   4.46870628495883E-16   1.64534931342295E-15   1.00000000000000E+00
      1.00000000000000E+00   0.00000000000000E+00   0.00000000000000E+00   0.00000000000000E+00   0.00000000000000E+00
      0.00000000000000E+00   7.34383126676466E-16
      1.42444444444444E-01
      0.00000000000000E+00   0.00000000000000E+00   0.00000000000000E+00   0.00000000000000E+00   2.40622315998983E-19
     -4.19744508517385E-16  -4.19503886201386E-16  -3.70916723470306E-15   0.00000000000000E+00   0.00000000000000E+00
      0.00000000000000E+00   0.00000000000000E+00  -1.32384249750028E-16  -2.96365168142252E-28  -1.32384249750324E-16
      1.25765046735002E-15   4.27333333333333E-01   4.27333333333333E-01   0.00000000000000E+00   0.00000000000000E+00
      5.51859653554527E-16   2.84823971827150E-20   5.51888135951710E-16   1.72495781028149E-15   1.00000000000000E+00
      1.00000000000000E+00   0.00000000000000E+00   0.00000000000000E+00   0.00000000000000E+00   0.00000000000000E+00
      0.00000000000000E+00   7.26558957071557E-16
      1.67444444444444E-01
      0.00000000000000E+00   0.00000000000000E+00   0.00000000000000E+00   0.00000000000000E+00   2.55149691768803E-19
     -5.29271163848616E-16  -5.29016014156847E-16  -3.77979235017922E-15   0.00000000000000E+00   0.00000000000000E+00
      0.00000000000000E+00   0.00000000000000E+00  -1.33086346821607E-16  -1.25658105465846E-28  -1.33086346821732E-16
      1.25765046716297E-15   5.02333333333333E-01   5.02333333333333E-01   0.00000000000000E+00   0.00000000000000E+00
      6.62073867688437E-16   2.84932901421284E-20   6.62102360978579E-16   1.80337341819122E-15   1.00000000000000E+00
      1.00000000000000E+00   0.00000000000000E+00   0.00000000000000E+00   0.00000000000000E+00   0.00000000000000E+00
      0.00000000000000E+00   7.18768464825036E-16
      1.92444444444444E-01
      0.00000000000000E+00   0.00000000000000E+00   0.00000000000000E+00   0.00000000000000E+00  -1.38527868768920E-19
     -6.51524781994753E-16  -6.51663309863522E-16  -3.84906382200409E-15   0.00000000000000E+00   0.00000000000000E+00
      0.00000000000000E+00   0.00000000000000E+00  -1.33476333154890E-16   8.79979859313268E-28  -1.33476333154010E-16
      1.25765046697061E-15   5.77333333333333E-01   5.77333333333333E-01   0.00000000000000E+00   0.00000000000000E+00
      7.85111148417994E-16   2.84945995375085E-20   7.85139643017532E-16   1.88040001163166E-15   1.00000000000000E+00
      1.00000000000000E+00   0.00000000000000E+00   0.00000000000000E+00   0.00000000000000E+00   0.00000000000000E+00
      0.00000000000000E+00   7.11013343401818E-16
      2.17444444444444E-01
      0.00000000000000E+00   0.00000000000000E+00   0.00000000000000E+00   0.00000000000000E+00  -3.54368797166242E-19
     -7.81155186119938E-16  -7.81509554917105E-16  -3.91668201232194E-15   0.00000000000000E+00   0.00000000000000E+00
      0.00000000000000E+00   0.00000000000000E+00  -1.34019016915971E-16  -2.08577011119046E-27  -1.34019016918057E-16
      1.25765046677318E-15   6.52333333333333E-01   6.52333333333333E-01   0.00000000000000E+00   0.00000000000000E+00
      9.15500074000351E-16   2.84978348109891E-20   9.15528571835162E-16   1.95573483317481E-15   1.00000000000000E+00
      1.00000000000000E+00   0.00000000000000E+00   0.00000000000000E+00   0.00000000000000E+00   0.00000000000000E+00
      0.00000000000000E+00   7.03296712373953E-16
      2.42444444444444E-01
      0.00000000000000E+00   0.00000000000000E+00   0.00000000000000E+00   0.00000000000000E+00  -1.36734662946246E-19
     -8.73748584737782E-16  -8.73885319400728E-16  -3.98228786132166E-15   0.00000000000000E+00   0.00000000000000E+00
      0.00000000000000E+00   0.00000000000000E+00  -1.34983394136235E-16   1.97388728182343E-28  -1.34983394136038E-16
      1.25765046657099E-15   7.27333333333333E-01   7.27333333333333E-01   0.00000000000000E+00   0.00000000000000E+00
      1.00884021116908E-15   2.85023676827346E-20   1.00886871353677E-15   2.02901513817423E-15   1.00000000000000E+00
      1.00000000000000E+00   0.00000000000000E+00   0.00000000000000E+00   0.00000000000000E+00   0.00000000000000E+00
      0.00000000000000E+00   6.95622256576438E-16
      2.67444444444444E-01
      0.00000000000000E+00   0.00000000000000E+00   0.00000000000000E+00   0.00000000000000E+00  -2.37641096280305E-19
     -9.21795401982782E-16  -9.22033043079063E-16  -4.04561760341474E-15   0.00000000000000E+00   0.00000000000000E+00
      0.00000000000000E+00   0.00000000000000E+00  -1.35611712248707E-16  -1.28113938656491E-28  -1.35611712248835E-16
      1.25765046636438E-15   8.02333333333333E-01   8.02333333333333E-01   0.00000000000000E+00   0.00000000000000E+00
      1.05761624812209E-15   2.85072058057104E-20   1.05764475532790E-15   2.09997371522383E-15   1.00000000000000E+00
      1.00000000000000E+00   0.00000000000000E+00   0.00000000000000E+00   0.00000000000000E+00   0.00000000000000E+00
      0.00000000000000E+00   6.87993421826529E-16
      2.92444444444444E-01
      0.00000000000000E+00   0.00000000000000E+00   0.00000000000000E+00   0.00000000000000E+00  -2.21461551400295E-19
     -9.45191936004716E-16  -9.45413397556116E-16  -4.10672512613199E-15   0.00000000000000E+00   0.00000000000000E+00
      0.00000000000000E+00   0.00000000000000E+00  -1.36338567206639E-16   1.34060834073943E-27  -1.36338567205298E-16
      1.25765046615365E-15   8.77333333333333E-01   8.77333333333333E-01   0.00000000000000E+00   0.00000000000000E+00
      1.08172345281323E-15   2.85119481866522E-20   1.08175196476141E-15   2.16866242808019E-15   1.00000000000000E+00
      1.00000000000000E+00   0.00000000000000E+00   0.00000000000000E+00   0.00000000000000E+00   0.00000000000000E+00
      0.00000000000000E+00   6.80412231898148E-16
      3.17444444444444E-01
      0.00000000000000E+00   0.00000000000000E+00   0.00000000000000E+00   0.00000000000000E+00   2.05574967188778E-20
     -9.60162329147934E-16  -9.60141771651216E-16  -4.16602997721704E-15   0.00000000000000E+00   0.00000000000000E+00
      0.00000000000000E+00   0.00000000000000E+00  -1.37276994441973E-16  -1.32597175273603E-28  -1.37276994442106E-16
      1.25765046593894E-15   9.52333333333333E-01   9.52333333333333E-01   0.00000000000000E+00   0.00000000000000E+00
      1.09739024952273E-15   2.85165705936813E-20   1.09741876609332E-15   2.23550191966899E-15   1.00000000000000E+00
      1.00000000000000E+00   0.00000000000000E+00   0.00000000000000E+00   0.00000000000000E+00   0.00000000000000E+00
      0.00000000000000E+00   6.72877591609123E-16
      3.42444444444444E-01
      0.00000000000000E+00   0.00000000000000E+00   0.00000000000000E+00   0.00000000000000E+00  -4.92036878983077E-19
     -9.74247305284534E-16  -9.74739342163517E-16  -4.22407938404970E-15   0.00000000000000E+00   0.00000000000000E+00
      0.00000000000000E+00   0.00000000000000E+00  -1.37445891795400E-16  -3.24654766950856E-27  -1.37445891798647E-16
      1.25765046572011E-15   1.02733333333333E+00   1.02733333333333E+00   0.00000000000000E+00   0.00000000000000E+00
      1.11215671286012E-15   2.85211020426553E-20   1.11218523396216E-15   2.30104513421459E-15   1.00000000000000E+00
      1.00000000000000E+00   0.00000000000000E+00   0.00000000000000E+00   0.00000000000000E+00   0.00000000000000E+00
      0.00000000000000E+00   6.65383784114995E-16
      3.67444444444445E-01
      0.00000000000000E+00   0.00000000000000E+00   0.00000000000000E+00   0.00000000000000E+00  -4.49952441694463E-20
     -9.89242924867774E-16  -9.89287920111944E-16  -4.28130419160106E-15   0.00000000000000E+00   0.00000000000000E+00
      0.00000000000000E+00   0.00000000000000E+00  -1.38562690462668E-16   8.88264716710884E-29  -1.38562690462579E-16
      1.25765046549677E-15   1.10233333333333E+00   1.10233333333333E+00   0.00000000000000E+00   0.00000000000000E+00
      1.12782208500238E-15   2.85255721419628E-20   1.12785061057452E-15   2.36573309819120E-15   1.00000000000000E+00
      1.00000000000000E+00   0.00000000000000E+00   0.00000000000000E+00   0.00000000000000E+00   0.00000000000000E+00
      0.00000000000000E+00   6.57920627913082E-16
      3.92444444444445E-01
      0.00000000000000E+00   0.00000000000000E+00   0.00000000000000E+00   0.00000000000000E+00   1.30272288560368E-19
     -1.00155741639564E-15  -1.00142714410708E-15  -4.33796084945782E-15   0.00000000000000E+00   0.00000000000000E+00
      0.00000000000000E+00   0.00000000000000E+00  -1.39397852953478E-16  -4.77826725836050E-28  -1.39397852953956E-16
      1.25765046526832E-15   1.17733333333333E+00   1.17733333333333E+00   0.00000000000000E+00   0.00000000000000E+00
      1.14079646706199E-15   2.85299990470936E-20   1.14082499706104E-15   2.42983451709404E-15   1.00000000000000E+00
      1.00000000000000E+00   0.00000000000000E+00   0.00000000000000E+00   0.00000000000000E+00   0.00000000000000E+00
      0.00000000000000E+00   6.50475867095461E-16
      4.17444444444445E-01
      0.00000000000000E+00   0.00000000000000E+00   0.00000000000000E+00   0.00000000000000E+00  -1.03666416828226E-20
     -1.00989547372028E-15  -1.00990584036196E-15  -4.39418065783439E-15   0.00000000000000E+00   0.00000000000000E+00
      0.00000000000000E+00   0.00000000000000E+00  -1.39909733411828E-16  -1.12757219346035E-27  -1.39909733412956E-16
      1.25765046503413E-15   1.25233333333333E+00   1.25233333333333E+00   0.00000000000000E+00   0.00000000000000E+00
      1.14978703932164E-15   2.85344532761075E-20   1.14981557377492E-15   2.49349193928156E-15   1.00000000000000E+00
      1.00000000000000E+00   0.00000000000000E+00   0.00000000000000E+00   0.00000000000000E+00   0.00000000000000E+00
      0.00000000000000E+00   6.43038253518707E-16
      4.42444444444445E-01
      0.00000000000000E+00   0.00000000000000E+00   0.00000000000000E+00   0.00000000000000E+00   7.27109883789176E-20
     -1.01729804732288E-15  -1.01722533633450E-15  -4.45002828562955E-15   0.00000000000000E+00   0.00000000000000E+00
      0.00000000000000E+00   0.00000000000000E+00  -1.40637977145538E-16   2.15235405225856E-27  -1.40637977143385E-16
      1.25765046479368E-15   1.32733333333333E+00   1.32733333333333E+00   0.00000000000000E+00   0.00000000000000E+00
      1.15783477442123E-15   2.85390566583332E-20   1.15786331347788E-15   2.55677845504987E-15   1.00000000000000E+00
      1.00000000000000E+00   0.00000000000000E+00   0.00000000000000E+00   0.00000000000000E+00   0.00000000000000E+00
      0.00000000000000E+00   6.35599365786000E-16
      4.67444444444445E-01
      0.00000000000000E+00   0.00000000000000E+00   0.00000000000000E+00   0.00000000000000E+00   2.29143422308800E-20
     -1.02704343933200E-15  -1.02702052498977E-15  -4.50554011961037E-15   0.00000000000000E+00   0.00000000000000E+00
      0.00000000000000E+00   0.00000000000000E+00  -1.41231434271649E-16  -8.37673020214607E-29  -1.41231434271733E-16
      1.25765046454656E-15   1.40233333333333E+00   1.40233333333333E+00   0.00000000000000E+00   0.00000000000000E+00
      1.16822341540516E-15   2.85438563392459E-20   1.16825195926150E-15   2.61973586442506E-15   1.00000000000000E+00
      1.00000000000000E+00   0.00000000000000E+00   0.00000000000000E+00   0.00000000000000E+00   0.00000000000000E+00
      0.00000000000000E+00   6.28153790638752E-16
      4.92444444444445E-01
      0.00000000000000E+00   0.00000000000000E+00   0.00000000000000E+00   0.00000000000000E+00  -4.74881403076615E-19
     -1.04113479492472E-15  -1.04160967632780E-15  -4.56074338330753E-15   0.00000000000000E+00   0.00000000000000E+00
      0.00000000000000E+00   0.00000000000000E+00  -1.41371432903385E-16  -6.55774892242408E-28  -1.41371432904041E-16
      1.25765046429250E-15   1.47733333333333E+00   1.47733333333333E+00   0.00000000000000E+00   0.00000000000000E+00
      1.18295256064530E-15   2.85485865441633E-20   1.18298110923184E-15   2.68239447780235E-15   1.00000000000000E+00
      1.00000000000000E+00   0.00000000000000E+00   0.00000000000000E+00   0.00000000000000E+00   0.00000000000000E+00
      0.00000000000000E+00   6.20698441212678E-16
      5.17444444444445E-01
      0.00000000000000E+00   0.00000000000000E+00   0.00000000000000E+00   0.00000000000000E+00   4.38064543711871E-20
     -1.05746677819373E-15  -1.05742297173936E-15  -4.61566132788265E-15   0.00000000000000E+00   0.00000000000000E+00
      0.00000000000000E+00   0.00000000000000E+00  -1.42236358126782E-16  -5.87496609196573E-28  -1.42236358127370E-16
      1.25765046403114E-15   1.55233333333333E+00   1.55233333333333E+00   0.00000000000000E+00   0.00000000000000E+00
      1.19963077736419E-15   2.85525025467870E-20   1.19965932986673E-15   2.74477912278247E-15   1.00000000000000E+00
      1.00000000000000E+00   0.00000000000000E+00   0.00000000000000E+00   0.00000000000000E+00   0.00000000000000E+00
      0.00000000000000E+00   6.13231741069035E-16
      5.42444444444445E-01
      0.00000000000000E+00   0.00000000000000E+00   0.00000000000000E+00   0.00000000000000E+00  -1.46645549828403E-19
     -1.07301538393607E-15  -1.07316202948589E-15  -4.67031058821689E-15   0.00000000000000E+00   0.00000000000000E+00
      0.00000000000000E+00   0.00000000000000E+00  -1.42902315384725E-16   9.83922952745709E-28  -1.42902315383741E-16
      1.25765046376277E-15   1.62733333333333E+00   1.62733333333333E+00   0.00000000000000E+00   0.00000000000000E+00
      1.21603578697221E-15   2.85578974226697E-20   1.21606434486964E-15   2.80690713990390E-15   1.00000000000000E+00
      1.00000000000000E+00   0.00000000000000E+00   0.00000000000000E+00   0.00000000000000E+00   0.00000000000000E+00
      0.00000000000000E+00   6.05752984550218E-16
      5.67444444444445E-01
      0.00000000000000E+00   0.00000000000000E+00   0.00000000000000E+00   0.00000000000000E+00   6.19233690212305E-20
     -1.09064060220493E-15  -1.09057867883591E-15  -4.72469722013188E-15   0.00000000000000E+00   0.00000000000000E+00
      0.00000000000000E+00   0.00000000000000E+00  -1.43798093112438E-16  -1.21957160156379E-27  -1.43798093113658E-16
      1.25765046348686E-15   1.70233333333333E+00   1.70233333333333E+00   0.00000000000000E+00   0.00000000000000E+00
      1.23434821527615E-15   2.85566734134549E-20   1.23437677194957E-15   2.86878483629059E-15   1.00000000000000E+00
      1.00000000000000E+00   0.00000000000000E+00   0.00000000000000E+00   0.00000000000000E+00   0.00000000000000E+00
      0.00000000000000E+00   5.98261920354438E-16
      5.92444444444445E-01
      0.00000000000000E+00   0.00000000000000E+00   0.00000000000000E+00   0.00000000000000E+00  -6.38190877091985E-19
     -1.11814042829526E-15  -1.11877861917236E-15  -4.77881500088633E-15   0.00000000000000E+00   0.00000000000000E+00
      0.00000000000000E+00   0.00000000000000E+00  -1.43697953819818E-16   1.20255655252326E-27  -1.43697953818615E-16
      1.25765046320336E-15   1.77733333333333E+00   1.77733333333333E+00   0.00000000000000E+00   0.00000000000000E+00
      1.26244802026985E-15   2.85527211217989E-20   1.26247657299097E-15   2.93040602458572E-15   1.00000000000000E+00
      1.00000000000000E+00   0.00000000000000E+00   0.00000000000000E+00   0.00000000000000E+00   0.00000000000000E+00
      0.00000000000000E+00   5.90758513097260E-16
      6.17444444444445E-01
      0.00000000000000E+00   0.00000000000000E+00   0.00000000000000E+00   0.00000000000000E+00  -3.38350963545048E-19
     -1.16534440235938E-15  -1.16568275332292E-15  -4.83264580084262E-15   0.00000000000000E+00   0.00000000000000E+00
      0.00000000000000E+00   0.00000000000000E+00  -1.44420720091359E-16  -3.12842281470637E-27  -1.44420720094488E-16
      1.25765046291212E-15   1.85233333333333E+00   1.85233333333333E+00   0.00000000000000E+00   0.00000000000000E+00
      1.31007490757314E-15   2.85658442765915E-20   1.31010347341741E-15   2.99175251428547E-15   1.00000000000000E+00
      1.00000000000000E+00   0.00000000000000E+00   0.00000000000000E+00   0.00000000000000E+00   0.00000000000000E+00
      0.00000000000000E+00   5.83242823645021E-16
      6.42444444444445E-01
      0.00000000000000E+00   0.00000000000000E+00   0.00000000000000E+00   0.00000000000000E+00  -9.48373784300048E-20
     -1.23561039525942E-15  -1.23570523263785E-15  -4.88616049444054E-15   0.00000000000000E+00   0.00000000000000E+00
      0.00000000000000E+00   0.00000000000000E+00  -1.45415858212927E-16   1.47485435757492E-27  -1.45415858211452E-16
      1.25765046261303E-15   1.92733333333333E+00   1.92733333333333E+00   0.00000000000000E+00   0.00000000000000E+00
      1.38109252669941E-15   2.85641498888633E-20   1.38112109084930E-15   3.05279507165659E-15   1.00000000000000E+00
      1.00000000000000E+00   0.00000000000000E+00   0.00000000000000E+00   0.00000000000000E+00   0.00000000000000E+00
      0.00000000000000E+00   5.75714960170917E-16
      6.67444444444445E-01
      0.00000000000000E+00   0.00000000000000E+00   0.00000000000000E+00   0.00000000000000E+00   6.38438643419876E-20
     -1.31311527214391E-15  -1.31305142827957E-15  -4.93931930987983E-15   0.00000000000000E+00   0.00000000000000E+00
      0.00000000000000E+00   0.00000000000000E+00  -1.46270900027357E-16   6.03864395184128E-28  -1.46270900026753E-16
      1.25765046230596E-15   2.00233333333333E+00   2.00233333333333E+00   0.00000000000000E+00   0.00000000000000E+00
      1.45929375696280E-15   2.85713435189381E-20   1.45932232830632E-15   3.11349378117387E-15   1.00000000000000E+00
      1.00000000000000E+00   0.00000000000000E+00   0.00000000000000E+00   0.00000000000000E+00   0.00000000000000E+00
      0.00000000000000E+00   5.68175066400006E-16
      6.92444444444445E-01
      0.00000000000000E+00   0.00000000000000E+00   0.00000000000000E+00   0.00000000000000E+00   6.51785855970748E-19
     -1.37576305130012E-15  -1.37511126544415E-15  -4.99207108360388E-15   0.00000000000000E+00   0.00000000000000E+00
      0.00000000000000E+00   0.00000000000000E+00  -1.47476569379780E-16   1.48246931855387E-27  -1.47476569378298E-16
      1.25765046199080E-15   2.07733333333333E+00   2.07733333333333E+00   0.00000000000000E+00   0.00000000000000E+00
      1.52255925459118E-15   2.85802312684290E-20   1.52258783482245E-15   3.17379729716083E-15   1.00000000000000E+00
      1.00000000000000E+00   0.00000000000000E+00   0.00000000000000E+00   0.00000000000000E+00   0.00000000000000E+00
      0.00000000000000E+00   5.60623324452254E-16
      7.17444444444445E-01
      0.00000000000000E+00   0.00000000000000E+00   0.00000000000000E+00   0.00000000000000E+00  -2.80003091958909E-19
     -1.41767873647972E-15  -1.41795873957168E-15  -5.04435110035105E-15   0.00000000000000E+00   0.00000000000000E+00
      0.00000000000000E+00   0.00000000000000E+00  -1.47158568585262E-16   1.73056207201989E-27  -1.47158568583531E-16
      1.25765046166746E-15   2.15233333333333E+00   2.15233333333333E+00   0.00000000000000E+00   0.00000000000000E+00
      1.56508872466271E-15   2.85834924984614E-20   1.56511730815521E-15   3.23364068117525E-15   1.00000000000000E+00
      1.00000000000000E+00   0.00000000000000E+00   0.00000000000000E+00   0.00000000000000E+00   0.00000000000000E+00
      0.00000000000000E+00   5.53059957508332E-16
      7.42444444444445E-01
      0.00000000000000E+00   0.00000000000000E+00   0.00000000000000E+00   0.00000000000000E+00   1.83531756087897E-19
     -1.44348224238492E-15  -1.44329871062883E-15  -5.09607740920251E-15   0.00000000000000E+00   0.00000000000000E+00
      0.00000000000000E+00   0.00000000000000E+00  -1.48229020702226E-16   2.97730400133918E-27  -1.48229020699249E-16
      1.25765046133587E-15   2.22733333333333E+00   2.22733333333333E+00   0.00000000000000E+00   0.00000000000000E+00
      1.59149914558463E-15   2.85857434551903E-20   1.59152773132808E-15   3.29294172354065E-15   1.00000000000000E+00
      1.00000000000000E+00   0.00000000000000E+00   0.00000000000000E+00   0.00000000000000E+00   0.00000000000000E+00
      0.00000000000000E+00   5.45485224325981E-16
      7.67444444444445E-01
      0.00000000000000E+00   0.00000000000000E+00   0.00000000000000E+00   0.00000000000000E+00  -2.38970417725777E-19
     -1.45892056645889E-15  -1.45915953687662E-15  -5.14714648530748E-15   0.00000000000000E+00   0.00000000000000E+00
      0.00000000000000E+00   0.00000000000000E+00  -1.48410973919849E-16   7.20937168472748E-28  -1.48410973919128E-16
      1.25765046099479E-15   2.30233333333333E+00   2.30233333333333E+00   0.00000000000000E+00   0.00000000000000E+00
      1.60754192040512E-15   2.85903906309753E-20   1.60757051079575E-15   3.35159662028063E-15   1.00000000000000E+00
      1.00000000000000E+00   0.00000000000000E+00   0.00000000000000E+00   0.00000000000000E+00   0.00000000000000E+00
      0.00000000000000E+00   5.37899404032047E-16
      7.92444444444445E-01
      0.00000000000000E+00   0.00000000000000E+00   0.00000000000000E+00   0.00000000000000E+00   4.91819491097138E-20
     -1.46888301709174E-15  -1.46883383514263E-15  -5.19743190933268E-15   0.00000000000000E+00   0.00000000000000E+00
      0.00000000000000E+00   0.00000000000000E+00  -1.49300791390988E-16  -1.99023270906788E-28  -1.49300791391187E-16
      1.25765046064575E-15   2.37733333333333E+00   2.37733333333333E+00   0.00000000000000E+00   0.00000000000000E+00
      1.61810603307406E-15   2.85934597601372E-20   1.61813462653382E-15   3.40947867412016E-15   1.00000000000000E+00
      1.00000000000000E+00   0.00000000000000E+00   0.00000000000000E+00   0.00000000000000E+00   0.00000000000000E+00
      0.00000000000000E+00   5.30302774566776E-16
      8.17444444444445E-01
      0.00000000000000E+00   0.00000000000000E+00   0.00000000000000E+00   0.00000000000000E+00  -2.15950473266522E-19
     -1.47674519878057E-15  -1.47696114925384E-15  -5.24679488590403E-15   0.00000000000000E+00   0.00000000000000E+00
      0.00000000000000E+00   0.00000000000000E+00  -1.49634639209988E-16   1.44363196320501E-27  -1.49634639208544E-16
      1.25765046028794E-15   2.45233333333333E+00   2.45233333333333E+00   0.00000000000000E+00   0.00000000000000E+00
      1.62656719205401E-15   2.85964083734073E-20   1.62659578846238E-15   3.46644883490609E-15   1.00000000000000E+00
      1.00000000000000E+00   0.00000000000000E+00   0.00000000000000E+00   0.00000000000000E+00   0.00000000000000E+00
      0.00000000000000E+00   5.22695590710003E-16
      8.42444444444445E-01
      0.00000000000000E+00   0.00000000000000E+00   0.00000000000000E+00   0.00000000000000E+00  -3.24370580063833E-19
     -1.48451856083299E-15  -1.48484293141305E-15  -5.29511905821215E-15   0.00000000000000E+00   0.00000000000000E+00
      0.00000000000000E+00   0.00000000000000E+00  -1.50122721112007E-16  -7.84017538647631E-28  -1.50122721112791E-16
      1.25765045992125E-15   2.52733333333333E+00   2.52733333333333E+00   0.00000000000000E+00   0.00000000000000E+00
      1.63493705329370E-15   2.85992321424410E-20   1.63496565252585E-15   3.52239053023002E-15   1.00000000000000E+00
      1.00000000000000E+00   0.00000000000000E+00   0.00000000000000E+00   0.00000000000000E+00   0.00000000000000E+00
      0.00000000000000E+00   5.15078068060881E-16
      8.67444444444445E-01
      0.00000000000000E+00   0.00000000000000E+00   0.00000000000000E+00   0.00000000000000E+00  -4.01940772338770E-19