DF-ISE text

Info {
  version   = 1.0
  type      = xyplot
  datasets  = [
    "time"
    "substrate OuterVoltage" "substrate InnerVoltage" "substrate QuasiFermiPotential" "substrate DisplacementCurrent" "substrate eCurrent"
    "substrate hCurrent" "substrate TotalCurrent" "substrate Charge" "source OuterVoltage" "source InnerVoltage"
    "source QuasiFermiPotential" "source DisplacementCurrent" "source eCurrent" "source hCurrent" "source TotalCurrent"
    "source Charge" "drain OuterVoltage" "drain InnerVoltage" "drain QuasiFermiPotential" "drain DisplacementCurrent"
    "drain eCurrent" "drain hCurrent" "drain TotalCurrent" "drain Charge" "gate OuterVoltage"
    "gate InnerVoltage" "gate QuasiFermiPotential" "gate DisplacementCurrent" "gate eCurrent" "gate hCurrent"
    "gate TotalCurrent" "gate Charge" ]
  functions = [
    Time
    OuterVoltage InnerVoltage QuasiFermiPotential DisplacementCurrent eCurrent
    hCurrent TotalCurrent Charge OuterVoltage InnerVoltage
    QuasiFermiPotential DisplacementCurrent eCurrent hCurrent TotalCurrent
    Charge OuterVoltage InnerVoltage QuasiFermiPotential DisplacementCurrent
    eCurrent hCurrent TotalCurrent Charge OuterVoltage
    InnerVoltage QuasiFermiPotential DisplacementCurrent eCurrent hCurrent
    TotalCurrent Charge ]
}

Data {
      0.00000000000000E+00
      0.00000000000000E+00   0.00000000000000E+00   0.00000000000000E+00   0.00000000000000E+00  -1.48427441373023E-18
     -2.34776297650075E-28  -1.48427441396501E-18  -1.64720563149614E-15   0.00000000000000E+00   0.00000000000000E+00
      0.00000000000000E+00   0.00000000000000E+00   8.96104303010687E-19   2.70385831594238E-28   8.96104303281073E-19
      4.04705723318721E-16   0.00000000000000E+00   0.00000000000000E+00   0.00000000000000E+00   0.00000000000000E+00
      5.88170110719357E-19  -3.54221467693371E-29   5.88170110683935E-19   4.04705723318721E-16   3.00000000000000E+00
      3.00000000000000E+00   0.00000000000000E+00   0.00000000000000E+00   0.00000000000000E+00   0.00000000000000E+00
      0.00000000000000E+00   8.37794184858691E-16
      1.00000000000000E-02
      0.00000000000000E+00   0.00000000000000E+00   0.00000000000000E+00   0.00000000000000E+00   1.49990946513469E-16
     -1.63610973213586E-17   1.33629849192110E-16  -1.65935987237458E-15   0.00000000000000E+00   0.00000000000000E+00
      0.00000000000000E+00   0.00000000000000E+00  -7.34108096264937E-05  -4.16055830870954E-24  -7.34108096264937E-05
      4.02746398487494E-16   3.00000000000000E-02   3.00000000000000E-02   0.00000000000000E+00   0.00000000000000E+00
      7.34108096263601E-05   6.11942762978994E-21   7.34108096263601E-05   4.23861871436397E-16   3.00000000000000E+00
      3.00000000000000E+00   0.00000000000000E+00   0.00000000000000E+00   0.00000000000000E+00   0.00000000000000E+00
      0.00000000000000E+00   8.32751602450689E-16
      2.33333333333333E-02
      0.00000000000000E+00   0.00000000000000E+00   0.00000000000000E+00   0.00000000000000E+00   4.90545374756764E-18
     -3.06252244311975E-17  -2.57197706836299E-17  -1.67554408251918E-15   0.00000000000000E+00   0.00000000000000E+00
      0.00000000000000E+00   0.00000000000000E+00  -1.37688044902383E-04  -7.80871410501437E-24  -1.37688044902383E-04
      4.00158411045030E-16   7.00000000000000E-02   7.00000000000000E-02   0.00000000000000E+00   0.00000000000000E+00
      1.37688044902409E-04   6.46419438976826E-21   1.37688044902409E-04   4.49307341922650E-16   3.00000000000000E+00
      3.00000000000000E+00   0.00000000000000E+00   0.00000000000000E+00   0.00000000000000E+00   0.00000000000000E+00
      0.00000000000000E+00   8.26078329551499E-16
      4.20000000000000E-02
      0.00000000000000E+00   0.00000000000000E+00   0.00000000000000E+00   0.00000000000000E+00   1.05744382447598E-17
     -4.57405488596573E-17  -3.51661106148975E-17  -1.69841694183437E-15   0.00000000000000E+00   0.00000000000000E+00
      0.00000000000000E+00   0.00000000000000E+00  -1.89165989904701E-04  -1.07347259114210E-23  -1.89165989904701E-04
      3.96716051426263E-16   1.26000000000000E-01   1.26000000000000E-01   0.00000000000000E+00   0.00000000000000E+00
      1.89165989904736E-04   1.10486664182402E-20   1.89165989904736E-04   4.84795411934490E-16   3.00000000000000E+00
      3.00000000000000E+00   0.00000000000000E+00   0.00000000000000E+00   0.00000000000000E+00   0.00000000000000E+00
      0.00000000000000E+00   8.16905478473618E-16
      6.70000000000000E-02
      0.00000000000000E+00   0.00000000000000E+00   0.00000000000000E+00   0.00000000000000E+00   3.20598838300228E-16
     -6.60596724567497E-17   2.54539165843478E-16  -1.72994027125002E-15   0.00000000000000E+00   0.00000000000000E+00
      0.00000000000000E+00   0.00000000000000E+00  -2.26479026777375E-04  -1.28602405011375E-23  -2.26479026777375E-04
      3.92497691253342E-16   2.01000000000000E-01   2.01000000000000E-01   0.00000000000000E+00   0.00000000000000E+00
      2.26479026777120E-04   1.20911872702962E-20   2.26479026777120E-04   5.32375241658941E-16   3.00000000000000E+00
      3.00000000000000E+00   0.00000000000000E+00   0.00000000000000E+00   0.00000000000000E+00   0.00000000000000E+00
      0.00000000000000E+00   8.05067338337731E-16
      9.20000000000000E-02
      0.00000000000000E+00   0.00000000000000E+00   0.00000000000000E+00   0.00000000000000E+00   2.60920096005834E-14
     -8.94886886900143E-17   2.60025209118934E-14  -1.76257557909856E-15   0.00000000000000E+00   0.00000000000000E+00
      0.00000000000000E+00   0.00000000000000E+00  -2.51003005356555E-04  -1.42589938153367E-23  -2.51003005356555E-04
      3.88564207023035E-16   2.76000000000000E-01   2.76000000000000E-01   0.00000000000000E+00   0.00000000000000E+00
      2.51003005330553E-04   8.46583746042318E-21   2.51003005330553E-04   5.80304481711234E-16   3.00000000000000E+00
      3.00000000000000E+00   0.00000000000000E+00   0.00000000000000E+00   0.00000000000000E+00   0.00000000000000E+00
      0.00000000000000E+00   7.93706890364290E-16
      1.17000000000000E-01
      0.00000000000000E+00   0.00000000000000E+00   0.00000000000000E+00   0.00000000000000E+00   1.36919662001418E-14
     -1.14680853491161E-16   1.35772853466506E-14  -1.79603292686914E-15   0.00000000000000E+00   0.00000000000000E+00
      0.00000000000000E+00   0.00000000000000E+00  -2.70937078160790E-04  -1.53995452127638E-23  -2.70937078160790E-04
      3.84748673340878E-16   3.51000000000000E-01   3.51000000000000E-01   0.00000000000000E+00   0.00000000000000E+00
      2.70937078147213E-04   7.09131361562116E-21   2.70937078147213E-04   6.28615332632784E-16   3.00000000000000E+00
      3.00000000000000E+00   0.00000000000000E+00   0.00000000000000E+00   0.00000000000000E+00   0.00000000000000E+00
      0.00000000000000E+00   7.82668920895473E-16
      1.42000000000000E-01
      0.00000000000000E+00   0.00000000000000E+00   0.00000000000000E+00   0.00000000000000E+00   4.75334536793650E-16
     -1.42085099036010E-16   3.33249437757640E-16  -1.82990335312286E-15   0.00000000000000E+00   0.00000000000000E+00
      0.00000000000000E+00   0.00000000000000E+00  -2.88597864863854E-04  -1.64143440100506E-23  -2.88597864863854E-04
      3.80984999870516E-16   4.26000000000000E-01   4.26000000000000E-01   0.00000000000000E+00   0.00000000000000E+00
      2.88597864863520E-04   1.21899676558455E-20   2.88597864863520E-04   6.77079270448446E-16   3.00000000000000E+00
      3.00000000000000E+00   0.00000000000000E+00   0.00000000000000E+00   0.00000000000000E+00   0.00000000000000E+00
      0.00000000000000E+00   7.71839082803894E-16
      1.67000000000000E-01
      0.00000000000000E+00   0.00000000000000E+00   0.00000000000000E+00   0.00000000000000E+00   6.44691459799630E-17
     -1.73851307190628E-16  -1.09382161210665E-16  -1.86363197940974E-15   0.00000000000000E+00   0.00000000000000E+00
      0.00000000000000E+00   0.00000000000000E+00  -3.05069872929086E-04  -1.73621804293005E-23  -3.05069872929086E-04
      3.77235213379593E-16   5.01000000000000E-01   5.01000000000000E-01   0.00000000000000E+00   0.00000000000000E+00
      3.05069872929195E-04   1.21926302417652E-20   3.05069872929195E-04   7.25292741811924E-16   3.00000000000000E+00
      3.00000000000000E+00   0.00000000000000E+00   0.00000000000000E+00   0.00000000000000E+00   0.00000000000000E+00
      0.00000000000000E+00   7.61104024218223E-16
      1.92000000000000E-01
      0.00000000000000E+00   0.00000000000000E+00   0.00000000000000E+00   0.00000000000000E+00   4.35265000101523E-16
     -2.11708286096348E-16   2.23556714005176E-16  -1.89698729892913E-15   0.00000000000000E+00   0.00000000000000E+00
      0.00000000000000E+00   0.00000000000000E+00  -3.20810072834515E-04  -1.82733544553092E-23  -3.20810072834515E-04
      3.73492498356717E-16   5.76000000000000E-01   5.76000000000000E-01   0.00000000000000E+00   0.00000000000000E+00
      3.20810072834291E-04   1.21969848341912E-20   3.20810072834291E-04   7.73070499280560E-16   3.00000000000000E+00
      3.00000000000000E+00   0.00000000000000E+00   0.00000000000000E+00   0.00000000000000E+00   0.00000000000000E+00
      0.00000000000000E+00   7.50424301291855E-16
      2.17000000000000E-01
      0.00000000000000E+00   0.00000000000000E+00   0.00000000000000E+00   0.00000000000000E+00   8.42752184643551E-16
     -2.48502592682716E-16   5.94249591960834E-16  -1.92994426815194E-15   0.00000000000000E+00   0.00000000000000E+00
      0.00000000000000E+00   0.00000000000000E+00  -3.35995051801065E-04  -1.91597036299395E-23  -3.35995051801065E-04
      3.69767819215519E-16   6.51000000000000E-01   6.51000000000000E-01   0.00000000000000E+00   0.00000000000000E+00
      3.35995051800471E-04   1.22090972040337E-20   3.35995051800471E-04   8.20368404258038E-16   3.00000000000000E+00
      3.00000000000000E+00   0.00000000000000E+00   0.00000000000000E+00   0.00000000000000E+00   0.00000000000000E+00
      0.00000000000000E+00   7.39808044678387E-16
      2.42000000000000E-01
      0.00000000000000E+00   0.00000000000000E+00   0.00000000000000E+00   0.00000000000000E+00   4.69710681939660E-16
     -2.74781302341118E-16   1.94929379598542E-16  -1.96252889444043E-15   0.00000000000000E+00   0.00000000000000E+00
      0.00000000000000E+00   0.00000000000000E+00  -3.50714160679239E-04  -2.00298502809082E-23  -3.50714160679239E-04
      3.66076929863846E-16   7.26000000000000E-01   7.26000000000000E-01   0.00000000000000E+00   0.00000000000000E+00
      3.50714160679044E-04   1.22210933878090E-20   3.50714160679044E-04   8.67175676514085E-16   3.00000000000000E+00
      3.00000000000000E+00   0.00000000000000E+00   0.00000000000000E+00   0.00000000000000E+00   0.00000000000000E+00
      0.00000000000000E+00   7.29276288062493E-16
      2.67000000000000E-01
      0.00000000000000E+00   0.00000000000000E+00   0.00000000000000E+00   0.00000000000000E+00   5.03015589053118E-17
     -2.91151547178216E-16  -2.40849988272904E-16  -1.99474849935100E-15   0.00000000000000E+00   0.00000000000000E+00
      0.00000000000000E+00   0.00000000000000E+00  -3.65038444037441E-04  -2.08922399247991E-23  -3.65038444037441E-04
      3.62434303917744E-16   8.01000000000000E-01   8.01000000000000E-01   0.00000000000000E+00   0.00000000000000E+00
      3.65038444037681E-04   1.22328555887571E-20   3.65038444037681E-04   9.13471452899575E-16   3.00000000000000E+00
      3.00000000000000E+00   0.00000000000000E+00   0.00000000000000E+00   0.00000000000000E+00   0.00000000000000E+00
      0.00000000000000E+00   7.18842742533680E-16
      2.92000000000000E-01
      0.00000000000000E+00   0.00000000000000E+00   0.00000000000000E+00   0.00000000000000E+00   4.01003277778120E-18
     -3.03111945217917E-16  -2.99101912440135E-16  -2.02656428762959E-15   0.00000000000000E+00   0.00000000000000E+00
      0.00000000000000E+00   0.00000000000000E+00  -3.79063256451664E-04  -2.17574205304650E-23  -3.79063256451664E-04
      3.58848404871769E-16   8.76000000000000E-01   8.76000000000000E-01   0.00000000000000E+00   0.00000000000000E+00
      3.79063256451963E-04   1.22443683878202E-20   3.79063256451963E-04   9.59217298698871E-16   3.00000000000000E+00
      3.00000000000000E+00   0.00000000000000E+00   0.00000000000000E+00   0.00000000000000E+00   0.00000000000000E+00
      0.00000000000000E+00   7.08498584058952E-16
      3.17000000000000E-01
      0.00000000000000E+00   0.00000000000000E+00   0.00000000000000E+00   0.00000000000000E+00  -6.54575850123130E-18
     -3.14218130657894E-16  -3.20763889159125E-16  -2.05795207320309E-15   0.00000000000000E+00   0.00000000000000E+00
      0.00000000000000E+00   0.00000000000000E+00  -3.92906598928635E-04  -2.26384467717937E-23  -3.92906598928635E-04
      3.55321343697494E-16   9.51000000000000E-01   9.51000000000000E-01   0.00000000000000E+00   0.00000000000000E+00
      3.92906598928956E-04   1.22556637644424E-20   3.92906598928956E-04   1.00441034899186E-15   3.00000000000000E+00
      3.00000000000000E+00   0.00000000000000E+00   0.00000000000000E+00   0.00000000000000E+00   0.00000000000000E+00
      0.00000000000000E+00   6.98220380513743E-16
      3.42000000000000E-01
      0.00000000000000E+00   0.00000000000000E+00   0.00000000000000E+00   0.00000000000000E+00  -4.00812093804834E-18
     -3.23419859703021E-16  -3.27427980641069E-16  -2.08893794698560E-15   0.00000000000000E+00   0.00000000000000E+00
      0.00000000000000E+00   0.00000000000000E+00  -4.06689572995477E-04  -2.35485105695260E-23  -4.06689572995477E-04
      3.51851072936477E-16   1.02600000000000E+00   1.02600000000000E+00   0.00000000000000E+00   0.00000000000000E+00
      4.06689572995805E-04   1.22668174253781E-20   4.06689572995805E-04   1.04910232079806E-15   3.00000000000000E+00
      3.00000000000000E+00   0.00000000000000E+00   0.00000000000000E+00   0.00000000000000E+00   0.00000000000000E+00
      0.00000000000000E+00   6.87984553251062E-16
      3.67000000000000E-01
      0.00000000000000E+00   0.00000000000000E+00   0.00000000000000E+00   0.00000000000000E+00   8.97382220982525E-18
     -3.29740711894720E-16  -3.20766889684895E-16  -2.11958365490249E-15   0.00000000000000E+00   0.00000000000000E+00
      0.00000000000000E+00   0.00000000000000E+00  -4.20520345643302E-04  -2.45026889220045E-23  -4.20520345643302E-04
      3.48433933741196E-16   1.10100000000000E+00   1.10100000000000E+00   0.00000000000000E+00   0.00000000000000E+00
      4.20520345643623E-04   1.22779317999453E-20   4.20520345643623E-04   1.09337546115914E-15   3.00000000000000E+00
      3.00000000000000E+00   0.00000000000000E+00   0.00000000000000E+00   0.00000000000000E+00   0.00000000000000E+00
      0.00000000000000E+00   6.77774260002157E-16
      3.92000000000000E-01
      0.00000000000000E+00   0.00000000000000E+00   0.00000000000000E+00   0.00000000000000E+00  -6.72383686337053E-19
     -3.34917819938303E-16  -3.35590203624640E-16  -2.14995596247592E-15   0.00000000000000E+00   0.00000000000000E+00
      0.00000000000000E+00   0.00000000000000E+00  -4.34488951236740E-04  -2.55117058824862E-23  -4.34488951236740E-04
      3.45066290173785E-16   1.17600000000000E+00   1.17600000000000E+00   0.00000000000000E+00   0.00000000000000E+00
      4.34488951237075E-04   1.22890852256893E-20   4.34488951237075E-04   1.13731101662082E-15   3.00000000000000E+00
      3.00000000000000E+00   0.00000000000000E+00   0.00000000000000E+00   0.00000000000000E+00   0.00000000000000E+00
      0.00000000000000E+00   6.67578655681319E-16
      4.17000000000000E-01
      0.00000000000000E+00   0.00000000000000E+00   0.00000000000000E+00   0.00000000000000E+00   2.78191774771016E-18
     -3.41084291489945E-16  -3.38302373742235E-16  -2.18010980405948E-15   0.00000000000000E+00   0.00000000000000E+00
      0.00000000000000E+00   0.00000000000000E+00  -4.48666756387024E-04  -2.65874275641868E-23  -4.48666756387024E-04
      3.41745486246139E-16   1.25100000000000E+00   1.25100000000000E+00   0.00000000000000E+00   0.00000000000000E+00
      4.48666756387362E-04   1.23003487510885E-20   4.48666756387362E-04   1.18097368229311E-15   3.00000000000000E+00
      3.00000000000000E+00   0.00000000000000E+00   0.00000000000000E+00   0.00000000000000E+00   0.00000000000000E+00
      0.00000000000000E+00   6.57390635520229E-16
      4.42000000000000E-01
      0.00000000000000E+00   0.00000000000000E+00   0.00000000000000E+00   0.00000000000000E+00  -1.73238605768672E-18
     -3.48562972303216E-16  -3.50295358360903E-16  -2.21008667777207E-15   0.00000000000000E+00   0.00000000000000E+00
      0.00000000000000E+00   0.00000000000000E+00  -4.63105690993224E-04  -2.77368871533536E-23  -4.63105690993224E-04
      3.38470395748820E-16   1.32600000000000E+00   1.32600000000000E+00   0.00000000000000E+00   0.00000000000000E+00
      4.63105690993574E-04   1.23117826696115E-20   4.63105690993574E-04   1.22441049598510E-15   3.00000000000000E+00
      3.00000000000000E+00   0.00000000000000E+00   0.00000000000000E+00   0.00000000000000E+00   0.00000000000000E+00
      0.00000000000000E+00   6.47205786038149E-16
      4.67000000000000E-01
      0.00000000000000E+00   0.00000000000000E+00   0.00000000000000E+00   0.00000000000000E+00  -1.01214972376608E-18
     -3.55727111455391E-16  -3.56739261179157E-16  -2.23991882303417E-15   0.00000000000000E+00   0.00000000000000E+00
      0.00000000000000E+00   0.00000000000000E+00  -4.77837185966614E-04  -2.89666903428711E-23  -4.77837185966614E-04
      3.35241612323699E-16   1.40100000000000E+00   1.40100000000000E+00   0.00000000000000E+00   0.00000000000000E+00
      4.77837185966971E-04   1.23234106566222E-20   4.77837185966971E-04   1.26765506020332E-15   3.00000000000000E+00
      3.00000000000000E+00   0.00000000000000E+00   0.00000000000000E+00   0.00000000000000E+00   0.00000000000000E+00
      0.00000000000000E+00   6.37022150507153E-16
      4.92000000000000E-01
      0.00000000000000E+00   0.00000000000000E+00   0.00000000000000E+00   0.00000000000000E+00  -1.71822825813210E-18
     -3.61676581293046E-16  -3.63394809551178E-16  -2.26963169367577E-15   0.00000000000000E+00   0.00000000000000E+00
      0.00000000000000E+00   0.00000000000000E+00  -4.92878847082267E-04  -3.02813697032861E-23  -4.92878847082267E-04
      3.32060683662207E-16   1.47600000000000E+00   1.47600000000000E+00   0.00000000000000E+00   0.00000000000000E+00
      4.92878847082630E-04   1.23351746023102E-20   4.92878847082630E-04   1.31073166453524E-15   3.00000000000000E+00
      3.00000000000000E+00   0.00000000000000E+00   0.00000000000000E+00   0.00000000000000E+00   0.00000000000000E+00
      0.00000000000000E+00   6.26839345478314E-16
      5.17000000000000E-01
      0.00000000000000E+00   0.00000000000000E+00   0.00000000000000E+00   0.00000000000000E+00   7.92864932769165E-19
     -3.66985572275252E-16  -3.66192707342483E-16  -2.29924424636077E-15   0.00000000000000E+00   0.00000000000000E+00
      0.00000000000000E+00   0.00000000000000E+00  -5.08239214425463E-04  -3.16882777523021E-23  -5.08239214425463E-04
      3.28929524858737E-16   1.55100000000000E+00   1.55100000000000E+00   0.00000000000000E+00   0.00000000000000E+00
      5.08239214425829E-04   1.23471152915666E-20   5.08239214425829E-04   1.35365784961152E-15   3.00000000000000E+00
      3.00000000000000E+00   0.00000000000000E+00   0.00000000000000E+00   0.00000000000000E+00   0.00000000000000E+00
      0.00000000000000E+00   6.16656871890519E-16
      5.42000000000000E-01
      0.00000000000000E+00   0.00000000000000E+00   0.00000000000000E+00   0.00000000000000E+00   5.16804387995401E-19
     -3.72549807394908E-16  -3.72033003006912E-16  -2.32876261715612E-15   0.00000000000000E+00   0.00000000000000E+00
      0.00000000000000E+00   0.00000000000000E+00  -5.23925630469994E-04  -3.31871488537533E-23  -5.23925630469994E-04
      3.25849802610405E-16   1.62600000000000E+00   1.62600000000000E+00   0.00000000000000E+00   0.00000000000000E+00
      5.23925630470365E-04   1.23592459156023E-20   5.23925630470365E-04   1.39643924516036E-15   3.00000000000000E+00
      3.00000000000000E+00   0.00000000000000E+00   0.00000000000000E+00   0.00000000000000E+00   0.00000000000000E+00
      0.00000000000000E+00   6.06473569385353E-16
      5.67000000000000E-01
      0.00000000000000E+00   0.00000000000000E+00   0.00000000000000E+00   0.00000000000000E+00  -1.40677369921245E-18
     -3.79821609948046E-16  -3.81228383647258E-16  -2.35819649372589E-15   0.00000000000000E+00   0.00000000000000E+00
      0.00000000000000E+00   0.00000000000000E+00  -5.39936658599122E-04  -3.47730491970670E-23  -5.39936658599122E-04
      3.22823506651995E-16   1.70100000000000E+00   1.70100000000000E+00   0.00000000000000E+00   0.00000000000000E+00
      5.39936658599503E-04   1.23715297935638E-20   5.39936658599503E-04   1.43908329805104E-15   3.00000000000000E+00
      3.00000000000000E+00   0.00000000000000E+00   0.00000000000000E+00   0.00000000000000E+00   0.00000000000000E+00
      0.00000000000000E+00   5.96289689022858E-16
      5.92000000000000E-01
      0.00000000000000E+00   0.00000000000000E+00   0.00000000000000E+00   0.00000000000000E+00   3.33935132517479E-18
     -3.90720345986794E-16  -3.87380994661619E-16  -2.38755186743500E-15   0.00000000000000E+00   0.00000000000000E+00
      0.00000000000000E+00   0.00000000000000E+00  -5.56267864295702E-04  -3.64453961309931E-23  -5.56267864295702E-04
      3.19852444507815E-16   1.77600000000000E+00   1.77600000000000E+00   0.00000000000000E+00   0.00000000000000E+00
      5.56267864296089E-04   1.23840157484406E-20   5.56267864296089E-04   1.48159383877148E-15   3.00000000000000E+00
      3.00000000000000E+00   0.00000000000000E+00   0.00000000000000E+00   0.00000000000000E+00   0.00000000000000E+00
      0.00000000000000E+00   5.86105584155712E-16
      6.17000000000000E-01
      0.00000000000000E+00   0.00000000000000E+00   0.00000000000000E+00   0.00000000000000E+00  -7.32547162637506E-19
     -4.06793879185259E-16  -4.07526426347896E-16  -2.41683117153546E-15   0.00000000000000E+00   0.00000000000000E+00
      0.00000000000000E+00   0.00000000000000E+00  -5.72912996855014E-04  -3.82001893458598E-23  -5.72912996855014E-04
      3.16938086886102E-16   1.85100000000000E+00   1.85100000000000E+00   0.00000000000000E+00   0.00000000000000E+00
      5.72912996855421E-04   1.23966915538451E-20   5.72912996855421E-04   1.52397140002782E-15   3.00000000000000E+00
      3.00000000000000E+00   0.00000000000000E+00   0.00000000000000E+00   0.00000000000000E+00   0.00000000000000E+00
      0.00000000000000E+00   5.75921684621538E-16
      6.42000000000000E-01
      0.00000000000000E+00   0.00000000000000E+00   0.00000000000000E+00   0.00000000000000E+00   9.04107230413898E-18
     -4.26947445949507E-16  -4.17906373645368E-16  -2.44603582714998E-15   0.00000000000000E+00   0.00000000000000E+00
      0.00000000000000E+00   0.00000000000000E+00  -5.89862890173519E-04  -4.00315619258475E-23  -5.89862890173519E-04
      3.14081551549389E-16   1.92600000000000E+00   1.92600000000000E+00   0.00000000000000E+00   0.00000000000000E+00
      5.89862890173937E-04   1.24095723294473E-20   5.89862890173937E-04   1.56621535840285E-15   3.00000000000000E+00
      3.00000000000000E+00   0.00000000000000E+00   0.00000000000000E+00   0.00000000000000E+00   0.00000000000000E+00
      0.00000000000000E+00   5.65738917197741E-16
      6.67000000000000E-01
      0.00000000000000E+00   0.00000000000000E+00   0.00000000000000E+00   0.00000000000000E+00  -3.69722825211099E-14
     -4.46777388850841E-16  -3.74190599099608E-14  -2.47516167295354E-15   0.00000000000000E+00   0.00000000000000E+00
      0.00000000000000E+00   0.00000000000000E+00  -6.07109974121609E-04  -4.19305512657583E-23  -6.07109974121609E-04
      3.11283270460718E-16   2.00100000000000E+00   2.00100000000000E+00   0.00000000000000E+00   0.00000000000000E+00
      6.07109974159028E-04   1.24226261122406E-20   6.07109974159028E-04   1.60832039174570E-15   3.00000000000000E+00
      3.00000000000000E+00   0.00000000000000E+00   0.00000000000000E+00   0.00000000000000E+00   0.00000000000000E+00
      0.00000000000000E+00   5.55558010747126E-16
      6.92000000000000E-01
      0.00000000000000E+00   0.00000000000000E+00   0.00000000000000E+00   0.00000000000000E+00  -3.28066839599280E-14
     -4.63213477285371E-16  -3.32698974372134E-14  -2.50419688893359E-15   0.00000000000000E+00   0.00000000000000E+00
      0.00000000000000E+00   0.00000000000000E+00  -6.24649600838864E-04  -4.38954329740213E-23  -6.24649600838864E-04
      3.08542946155660E-16   2.07600000000000E+00   2.07600000000000E+00   0.00000000000000E+00   0.00000000000000E+00
      6.24649600872134E-04   1.24359178247195E-20   6.24649600872134E-04   1.65027516524125E-15   3.00000000000000E+00
      3.00000000000000E+00   0.00000000000000E+00   0.00000000000000E+00   0.00000000000000E+00   0.00000000000000E+00
      0.00000000000000E+00   5.45378777536685E-16
      7.17000000000000E-01
      0.00000000000000E+00   0.00000000000000E+00   0.00000000000000E+00   0.00000000000000E+00  -2.84327266340715E-14
     -4.75837018413336E-16  -2.89085636524848E-14  -2.53312671768586E-15   0.00000000000000E+00   0.00000000000000E+00
      0.00000000000000E+00   0.00000000000000E+00  -6.42475194478849E-04  -4.59278640116394E-23  -6.42475194478849E-04
      3.05859929377577E-16   2.15100000000000E+00   2.15100000000000E+00   0.00000000000000E+00   0.00000000000000E+00
      6.42475194507758E-04   1.24493883807118E-20   6.42475194507758E-04   1.69206502995471E-15   3.00000000000000E+00
      3.00000000000000E+00   0.00000000000000E+00   0.00000000000000E+00   0.00000000000000E+00   0.00000000000000E+00
      0.00000000000000E+00   5.35201758353575E-16
      7.42000000000000E-01
      0.00000000000000E+00   0.00000000000000E+00   0.00000000000000E+00   0.00000000000000E+00  -2.41378271449401E-14
     -4.84843283519150E-16  -2.46226704284593E-14  -2.56193002871884E-15   0.00000000000000E+00   0.00000000000000E+00
      0.00000000000000E+00   0.00000000000000E+00  -6.60580882515315E-04  -4.80265529661785E-23  -6.60580882515315E-04
      3.03233137269583E-16   2.22600000000000E+00   2.22600000000000E+00   0.00000000000000E+00   0.00000000000000E+00
      6.60580882539938E-04   1.24627945821989E-20   6.60580882539938E-04   1.73366948869759E-15   3.00000000000000E+00
      3.00000000000000E+00   0.00000000000000E+00   0.00000000000000E+00   0.00000000000000E+00   0.00000000000000E+00
      0.00000000000000E+00   5.25027402751667E-16
      7.67000000000000E-01
      0.00000000000000E+00   0.00000000000000E+00   0.00000000000000E+00   0.00000000000000E+00  -2.77645753118961E-18
     -4.91281181813876E-16  -4.94057639345066E-16  -2.59058017807464E-15   0.00000000000000E+00   0.00000000000000E+00
      0.00000000000000E+00   0.00000000000000E+00  -6.78960459119686E-04  -5.01878663748756E-23  -6.78960459119686E-04
      3.00661207703176E-16   2.30100000000000E+00   2.30100000000000E+00   0.00000000000000E+00   0.00000000000000E+00
      6.78960459120180E-04   1.24769826525908E-20   6.78960459120180E-04   1.77506272252898E-15   3.00000000000000E+00
      3.00000000000000E+00   0.00000000000000E+00   0.00000000000000E+00   0.00000000000000E+00   0.00000000000000E+00
      0.00000000000000E+00   5.14856247842484E-16
      7.92000000000000E-01
      0.00000000000000E+00   0.00000000000000E+00   0.00000000000000E+00   0.00000000000000E+00  -5.80250975579537E-18
     -4.96738417832819E-16  -5.02540927588614E-16  -2.61904770142843E-15   0.00000000000000E+00   0.00000000000000E+00
      0.00000000000000E+00   0.00000000000000E+00  -6.97606254837057E-04  -5.24077498239420E-23  -6.97606254837057E-04
      2.98142594771981E-16   2.37600000000000E+00   2.37600000000000E+00   0.00000000000000E+00   0.00000000000000E+00
      6.97606254837560E-04   1.24910670539795E-20   6.97606254837560E-04   1.81621635576571E-15   3.00000000000000E+00
      3.00000000000000E+00   0.00000000000000E+00   0.00000000000000E+00   0.00000000000000E+00   0.00000000000000E+00
      0.00000000000000E+00   5.04688750890737E-16
      8.17000000000000E-01
      0.00000000000000E+00   0.00000000000000E+00   0.00000000000000E+00   0.00000000000000E+00  -6.37498188984002E-18
     -5.02220706896025E-16  -5.08595688785865E-16  -2.64731109039757E-15   0.00000000000000E+00   0.00000000000000E+00
      0.00000000000000E+00   0.00000000000000E+00  -7.16509475757404E-04  -5.46851341326394E-23  -7.16509475757404E-04
      2.95675603231839E-16   2.45100000000000E+00   2.45100000000000E+00   0.00000000000000E+00   0.00000000000000E+00
      7.16509475757913E-04   1.25053020156935E-20   7.16509475757913E-04   1.85710926685100E-15   3.00000000000000E+00
      3.00000000000000E+00   0.00000000000000E+00   0.00000000000000E+00   0.00000000000000E+00   0.00000000000000E+00
      0.00000000000000E+00   4.94526220314731E-16
      8.42000000000000E-01
      0.00000000000000E+00   0.00000000000000E+00   0.00000000000000E+00   0.00000000000000E+00  -1.55026887584978E-17
     -5.07647716989895E-16  -5.23150405748393E-16  -2.67535566526617E-15   0.00000000000000E+00   0.00000000000000E+00
      0.00000000000000E+00   0.00000000000000E+00  -7.35666900417506E-04  -5.70085999248087E-23  -7.35666900417506E-04
      2.93258060957750E-16   2.52600000000000E+00   2.52600000000000E+00   0.00000000000000E+00   0.00000000000000E+00
      7.35666900418029E-04   1.25193454655517E-20   7.35666900418029E-04   1.89772936596016E-15   3.00000000000000E+00
      3.00000000000000E+00   0.00000000000000E+00   0.00000000000000E+00   0.00000000000000E+00   0.00000000000000E+00
      0.00000000000000E+00   4.84368238348257E-16
      8.67000000000000E-01
      0.00000000000000E+00   0.00000000000000E+00   0.00000000000000E+00   0.00000000000000E+00   5.41954562140642E-18