DF-ISE text

Info {
  version   = 1.0
  type      = xyplot
  datasets  = [
    "time"
    "substrate OuterVoltage" "substrate InnerVoltage" "substrate QuasiFermiPotential" "substrate DisplacementCurrent" "substrate eCurrent"
    "substrate hCurrent" "substrate TotalCurrent" "substrate Charge" "source OuterVoltage" "source InnerVoltage"
    "source QuasiFermiPotential" "source DisplacementCurrent" "source eCurrent" "source hCurrent" "source TotalCurrent"
    "source Charge" "drain OuterVoltage" "drain InnerVoltage" "drain QuasiFermiPotential" "drain DisplacementCurrent"
    "drain eCurrent" "drain hCurrent" "drain TotalCurrent" "drain Charge" "gate OuterVoltage"
    "gate InnerVoltage" "gate QuasiFermiPotential" "gate DisplacementCurrent" "gate eCurrent" "gate hCurrent"
    "gate TotalCurrent" "gate Charge" ]
  functions = [
    Time
    OuterVoltage InnerVoltage QuasiFermiPotential DisplacementCurrent eCurrent
    hCurrent TotalCurrent Charge OuterVoltage InnerVoltage
    QuasiFermiPotential DisplacementCurrent eCurrent hCurrent TotalCurrent
    Charge OuterVoltage InnerVoltage QuasiFermiPotential DisplacementCurrent
    eCurrent hCurrent TotalCurrent Charge OuterVoltage
    InnerVoltage QuasiFermiPotential DisplacementCurrent eCurrent hCurrent
    TotalCurrent Charge ]
}

Data {
      0.00000000000000E+00
      0.00000000000000E+00   0.00000000000000E+00   0.00000000000000E+00   0.00000000000000E+00  -2.53538737411153E-19
     -3.55116619567061E-29  -2.53538737446665E-19  -8.89055001720491E-16   0.00000000000000E+00   0.00000000000000E+00
      0.00000000000000E+00   0.00000000000000E+00   9.62994029108609E-19  -2.27199408655543E-29   9.62994029085889E-19
      1.42692829533036E-16   0.00000000000000E+00   0.00000000000000E+00   0.00000000000000E+00   0.00000000000000E+00
      2.41826774523215E-18   5.81990326341122E-29   2.41826774529035E-18   1.76242586949002E-16   3.00000000000000E+00
      3.00000000000000E+00   0.00000000000000E+00   0.00000000000000E+00   0.00000000000000E+00   0.00000000000000E+00
      0.00000000000000E+00   5.97678651161169E-16
      1.00000000000000E-02
      0.00000000000000E+00   0.00000000000000E+00   0.00000000000000E+00   0.00000000000000E+00   5.57382327875322E-15
     -1.46723691826281E-17   5.55915090957060E-15  -8.98169738940830E-16   0.00000000000000E+00   0.00000000000000E+00
      0.00000000000000E+00   0.00000000000000E+00  -7.30998370828002E-04  -5.30645166255555E-23  -7.30998370828002E-04
      1.37469933905577E-16   3.00000000000000E-02   3.00000000000000E-02   0.00000000000000E+00   0.00000000000000E+00
      7.30998370822404E-04   3.70950379548698E-21   7.30998370822404E-04   1.94046269797329E-16   3.00000000000000E+00
      3.00000000000000E+00   0.00000000000000E+00   0.00000000000000E+00   0.00000000000000E+00   0.00000000000000E+00
      0.00000000000000E+00   5.94048530729165E-16
      2.33333333333333E-02
      0.00000000000000E+00   0.00000000000000E+00   0.00000000000000E+00   0.00000000000000E+00  -2.79812933161315E-16
     -2.85767765645237E-17  -3.08389709725838E-16  -9.10666595800314E-16   0.00000000000000E+00   0.00000000000000E+00
      0.00000000000000E+00   0.00000000000000E+00  -1.52556685062636E-03  -1.13570406403813E-22  -1.52556685062636E-03
      1.28360708131773E-16   7.00000000000000E-02   7.00000000000000E-02   0.00000000000000E+00   0.00000000000000E+00
      1.52556685062425E-03   4.34899150668505E-21   1.52556685062425E-03   2.20354758286402E-16   3.00000000000000E+00
      3.00000000000000E+00   0.00000000000000E+00   0.00000000000000E+00   0.00000000000000E+00   0.00000000000000E+00
      0.00000000000000E+00   5.89228338826112E-16
      4.20000000000000E-02
      0.00000000000000E+00   0.00000000000000E+00   0.00000000000000E+00   0.00000000000000E+00  -2.61337287228567E-15
     -4.29164112914729E-17  -2.65628928357714E-15  -9.29281773717381E-16   0.00000000000000E+00   0.00000000000000E+00
      0.00000000000000E+00   0.00000000000000E+00  -2.31313237659423E-03   5.92926876405983E-23  -2.31313237659423E-03
      1.10936227953546E-16   1.26000000000000E-01   1.26000000000000E-01   0.00000000000000E+00   0.00000000000000E+00
      2.31313237665612E-03   2.62719969471355E-21   2.31313237665612E-03   2.63545719695690E-16   3.00000000000000E+00
      3.00000000000000E+00   0.00000000000000E+00   0.00000000000000E+00   0.00000000000000E+00   0.00000000000000E+00
      0.00000000000000E+00   5.82559990745699E-16
      6.70000000000000E-02
      0.00000000000000E+00   0.00000000000000E+00   0.00000000000000E+00   0.00000000000000E+00   2.90577292912764E-18
     -5.93750427342743E-17  -5.64692698051466E-17  -9.55699972771512E-16   0.00000000000000E+00   0.00000000000000E+00
      0.00000000000000E+00   0.00000000000000E+00  -2.95459019154925E-03  -2.67015162029514E-22  -2.95459019154925E-03
      8.08236577028118E-17   2.01000000000000E-01   2.01000000000000E-01   0.00000000000000E+00   0.00000000000000E+00
      2.95459019154931E-03   7.19198282321200E-21   2.95459019154931E-03   3.31176868793630E-16   3.00000000000000E+00
      3.00000000000000E+00   0.00000000000000E+00   0.00000000000000E+00   0.00000000000000E+00   0.00000000000000E+00
      0.00000000000000E+00   5.73807089790728E-16
      9.20000000000000E-02
      0.00000000000000E+00   0.00000000000000E+00   0.00000000000000E+00   0.00000000000000E+00  -9.33258866169455E-15
     -7.60885807998957E-17  -9.40867724249445E-15  -9.82516761568927E-16   0.00000000000000E+00   0.00000000000000E+00
      0.00000000000000E+00   0.00000000000000E+00  -3.46053946527988E-03  -6.31178955028539E-23  -3.46053946527988E-03
      4.88062313123221E-17   2.76000000000000E-01   2.76000000000000E-01   0.00000000000000E+00   0.00000000000000E+00
      3.46053946529030E-03   2.89771658947800E-21   3.46053946529030E-03   4.01713782975230E-16   3.00000000000000E+00
      3.00000000000000E+00   0.00000000000000E+00   0.00000000000000E+00   0.00000000000000E+00   0.00000000000000E+00
      0.00000000000000E+00   5.65138478245381E-16
      1.17000000000000E-01
      0.00000000000000E+00   0.00000000000000E+00   0.00000000000000E+00   0.00000000000000E+00   3.12267982066724E-17
     -9.15970185962927E-17  -6.03702203896202E-17  -1.00908086824801E-15   0.00000000000000E+00   0.00000000000000E+00
      0.00000000000000E+00   0.00000000000000E+00  -3.95820767298345E-03  -3.32848970707590E-22  -3.95820767298345E-03
      1.72522245629683E-17   3.51000000000000E-01   3.51000000000000E-01   0.00000000000000E+00   0.00000000000000E+00
      3.95820767298351E-03   5.14839851755319E-21   3.95820767298351E-03   4.71465201291720E-16   3.00000000000000E+00
      3.00000000000000E+00   0.00000000000000E+00   0.00000000000000E+00   0.00000000000000E+00   0.00000000000000E+00
      0.00000000000000E+00   5.56495279293989E-16
      1.42000000000000E-01
      0.00000000000000E+00   0.00000000000000E+00   0.00000000000000E+00   0.00000000000000E+00  -3.04314323615926E-19
     -1.04966422819037E-16  -1.05270737142653E-16  -1.03522494348671E-15   0.00000000000000E+00   0.00000000000000E+00
      0.00000000000000E+00   0.00000000000000E+00  -4.45635792312295E-03  -6.35252708648370E-22  -4.45635792312295E-03
     -1.36423165957379E-17   4.26000000000000E-01   4.26000000000000E-01   0.00000000000000E+00   0.00000000000000E+00
      4.45635792312305E-03   1.26671612531850E-20   4.45635792312305E-03   5.39968996969542E-16   3.00000000000000E+00
      3.00000000000000E+00   0.00000000000000E+00   0.00000000000000E+00   0.00000000000000E+00   0.00000000000000E+00
      0.00000000000000E+00   5.47877761497302E-16
      1.67000000000000E-01
      0.00000000000000E+00   0.00000000000000E+00   0.00000000000000E+00   0.00000000000000E+00  -6.15765999338554E-19
     -1.16590044701175E-16  -1.17205810700513E-16  -1.06103430989117E-15   0.00000000000000E+00   0.00000000000000E+00
      0.00000000000000E+00   0.00000000000000E+00  -4.95127221141810E-03  -3.43024844264891E-22  -4.95127221141810E-03
     -4.39173043915126E-17   5.01000000000000E-01   5.01000000000000E-01   0.00000000000000E+00   0.00000000000000E+00
      4.95127221141822E-03   6.94615592082480E-21   4.95127221141822E-03   6.07312420350325E-16   3.00000000000000E+00
      3.00000000000000E+00   0.00000000000000E+00   0.00000000000000E+00   0.00000000000000E+00   0.00000000000000E+00
      0.00000000000000E+00   5.39295056890937E-16
      1.92000000000000E-01
      0.00000000000000E+00   0.00000000000000E+00   0.00000000000000E+00   0.00000000000000E+00  -2.78885952760657E-18
     -1.29561316082073E-16  -1.32350175609679E-16  -1.08656998106646E-15   0.00000000000000E+00   0.00000000000000E+00
      0.00000000000000E+00   0.00000000000000E+00  -5.43910492327375E-03  -6.36551312072308E-22  -5.43910492327375E-03
     -7.35457775305298E-17   5.76000000000000E-01   5.76000000000000E-01   0.00000000000000E+00   0.00000000000000E+00
      5.43910492327389E-03   1.01620981998224E-20   5.43910492327389E-03   6.73487431149643E-16   3.00000000000000E+00
      3.00000000000000E+00   0.00000000000000E+00   0.00000000000000E+00   0.00000000000000E+00   0.00000000000000E+00
      0.00000000000000E+00   5.30757866936686E-16
      2.17000000000000E-01
      0.00000000000000E+00   0.00000000000000E+00   0.00000000000000E+00   0.00000000000000E+00  -2.43493379032795E-18
     -1.46465625213793E-16  -1.48900559004121E-16  -1.11181760448520E-15   0.00000000000000E+00   0.00000000000000E+00
      0.00000000000000E+00   0.00000000000000E+00  -5.91612046472203E-03  -7.13588509511604E-22  -5.91612046472203E-03
     -1.02420911684234E-16   6.51000000000000E-01   6.51000000000000E-01   0.00000000000000E+00   0.00000000000000E+00
      5.91612046472217E-03   1.04535940549870E-20   5.91612046472217E-03   7.38338927947766E-16   3.00000000000000E+00
      3.00000000000000E+00   0.00000000000000E+00   0.00000000000000E+00   0.00000000000000E+00   0.00000000000000E+00
      0.00000000000000E+00   5.22275066682181E-16
      2.42000000000000E-01
      0.00000000000000E+00   0.00000000000000E+00   0.00000000000000E+00   0.00000000000000E+00  -3.10031009986142E-18
     -1.63470838133485E-16  -1.66571148233347E-16  -1.13673998202152E-15   0.00000000000000E+00   0.00000000000000E+00
      0.00000000000000E+00   0.00000000000000E+00  -6.37883771368279E-03  -3.71333993720714E-22  -6.37883771368279E-03
     -1.30396843876400E-16   7.26000000000000E-01   7.26000000000000E-01   0.00000000000000E+00   0.00000000000000E+00
      6.37883771368295E-03   8.13829044638188E-21   6.37883771368295E-03   8.01680270266414E-16   3.00000000000000E+00
      3.00000000000000E+00   0.00000000000000E+00   0.00000000000000E+00   0.00000000000000E+00   0.00000000000000E+00
      0.00000000000000E+00   5.13848939558843E-16
      2.67000000000000E-01
      0.00000000000000E+00   0.00000000000000E+00   0.00000000000000E+00   0.00000000000000E+00  -4.78498845330062E-18
     -1.76815195850119E-16  -1.81600184303420E-16  -1.16130818489145E-15   0.00000000000000E+00   0.00000000000000E+00
      0.00000000000000E+00   0.00000000000000E+00  -6.82452242649155E-03  -6.38993178103561E-22  -6.82452242649155E-03
     -1.57331394293184E-16   8.01000000000000E-01   8.01000000000000E-01   0.00000000000000E+00   0.00000000000000E+00
      6.82452242649173E-03   9.07191465197878E-21   6.82452242649173E-03   8.63370682938148E-16   3.00000000000000E+00
      3.00000000000000E+00   0.00000000000000E+00   0.00000000000000E+00   0.00000000000000E+00   0.00000000000000E+00
      0.00000000000000E+00   5.05474187138820E-16
      2.92000000000000E-01
      0.00000000000000E+00   0.00000000000000E+00   0.00000000000000E+00   0.00000000000000E+00   2.28085230772935E-14
     -1.86858225948241E-16   2.26216648513453E-14  -1.18552566479131E-15   0.00000000000000E+00   0.00000000000000E+00
      0.00000000000000E+00   0.00000000000000E+00  -7.25089735659949E-03  -1.51501504523087E-21  -7.25089735659949E-03
     -1.83106455323174E-16   8.76000000000000E-01   8.76000000000000E-01   0.00000000000000E+00   0.00000000000000E+00
      7.25089735660339E-03   1.94331345885412E-20   7.25089735660339E-03   9.23333951734723E-16   3.00000000000000E+00
      3.00000000000000E+00   0.00000000000000E+00   0.00000000000000E+00   0.00000000000000E+00   0.00000000000000E+00
      0.00000000000000E+00   4.97145373468847E-16
      3.17000000000000E-01
      0.00000000000000E+00   0.00000000000000E+00   0.00000000000000E+00   0.00000000000000E+00  -3.73737041800903E-18
     -1.94192656160664E-16  -1.97930026578673E-16  -1.20943826515901E-15   0.00000000000000E+00   0.00000000000000E+00
      0.00000000000000E+00   0.00000000000000E+00  -7.65714704205475E-03  -1.37294695189130E-21  -7.65714704205475E-03
     -2.07637072989871E-16   9.51000000000000E-01   9.51000000000000E-01   0.00000000000000E+00   0.00000000000000E+00
      7.65714704205495E-03   1.53138372860006E-20   7.65714704205495E-03   9.81574063630066E-16   3.00000000000000E+00
      3.00000000000000E+00   0.00000000000000E+00   0.00000000000000E+00   0.00000000000000E+00   0.00000000000000E+00
      0.00000000000000E+00   4.88853304900521E-16
      3.42000000000000E-01
      0.00000000000000E+00   0.00000000000000E+00   0.00000000000000E+00   0.00000000000000E+00  -9.02952526531779E-13
     -2.00601714556749E-16  -9.03153128246336E-13  -1.23311359638255E-15   0.00000000000000E+00   0.00000000000000E+00
      0.00000000000000E+00   0.00000000000000E+00  -8.04264921396231E-03  -1.18115462520454E-21  -8.04264921396231E-03
     -2.30865234381562E-16   1.02600000000000E+00   1.02600000000000E+00   0.00000000000000E+00   0.00000000000000E+00
      8.04264921398045E-03   9.86679944625735E-21   8.04264921398045E-03   1.03813000077246E-15   3.00000000000000E+00
      3.00000000000000E+00   0.00000000000000E+00   0.00000000000000E+00   0.00000000000000E+00   0.00000000000000E+00
      0.00000000000000E+00   4.80593308414856E-16
      3.67000000000000E-01
      0.00000000000000E+00   0.00000000000000E+00   0.00000000000000E+00   0.00000000000000E+00  -2.92223162073802E-13
     -2.06640007689638E-16  -2.92429802081492E-13  -1.25661992309409E-15   0.00000000000000E+00   0.00000000000000E+00
      0.00000000000000E+00   0.00000000000000E+00  -8.40791035350764E-03  -1.48406570944256E-21  -8.40791035350764E-03
     -2.52806574938160E-16   1.10100000000000E+00   1.10100000000000E+00   0.00000000000000E+00   0.00000000000000E+00
      8.40791035345802E-03  -1.78665167573702E-20   8.40791035345802E-03   1.09311255203540E-15   3.00000000000000E+00
      3.00000000000000E+00   0.00000000000000E+00   0.00000000000000E+00   0.00000000000000E+00   0.00000000000000E+00
      0.00000000000000E+00   4.72360458527791E-16
      3.92000000000000E-01
      0.00000000000000E+00   0.00000000000000E+00   0.00000000000000E+00   0.00000000000000E+00  -3.85062361315950E-18
     -2.11786125697406E-16  -2.15636749310565E-16  -1.28001284403613E-15   0.00000000000000E+00   0.00000000000000E+00
      0.00000000000000E+00   0.00000000000000E+00  -8.75508361465015E-03  -1.95171132660323E-21  -8.75508361465015E-03
     -2.73590359031553E-16   1.17600000000000E+00   1.17600000000000E+00   0.00000000000000E+00   0.00000000000000E+00
      8.75508361465037E-03   1.91110458934265E-20   8.75508361465037E-03   1.14673248616671E-15   3.00000000000000E+00
      3.00000000000000E+00   0.00000000000000E+00   0.00000000000000E+00   0.00000000000000E+00   0.00000000000000E+00
      0.00000000000000E+00   4.64148993008856E-16
      4.17000000000000E-01
      0.00000000000000E+00   0.00000000000000E+00   0.00000000000000E+00   0.00000000000000E+00  -1.59566047832814E-15
     -2.16357176376867E-16  -1.81201765470501E-15  -1.30333102219890E-15   0.00000000000000E+00   0.00000000000000E+00
      0.00000000000000E+00   0.00000000000000E+00  -9.08739188841539E-03  -2.64305964887722E-21  -9.08739188841539E-03
     -2.93429087186587E-16   1.25100000000000E+00   1.25100000000000E+00   0.00000000000000E+00   0.00000000000000E+00
      9.08739188842038E-03   2.85913040627873E-20   9.08739188842038E-03   1.19926373795247E-15   3.00000000000000E+00
      3.00000000000000E+00   0.00000000000000E+00   0.00000000000000E+00   0.00000000000000E+00   0.00000000000000E+00
      0.00000000000000E+00   4.55952967248164E-16
      4.42000000000000E-01
      0.00000000000000E+00   0.00000000000000E+00   0.00000000000000E+00   0.00000000000000E+00  -2.18226874135049E-15
     -2.21167717017826E-16  -2.40343645836831E-15  -1.32659768360840E-15   0.00000000000000E+00   0.00000000000000E+00
      0.00000000000000E+00   0.00000000000000E+00  -9.40806964005346E-03  -2.75792508708558E-21  -9.40806964005346E-03
     -3.12540752341436E-16   1.32600000000000E+00   1.32600000000000E+00   0.00000000000000E+00   0.00000000000000E+00
      9.40806964005635E-03   2.97583225868483E-20   9.40806964005635E-03   1.25096474654425E-15   3.00000000000000E+00
      3.00000000000000E+00   0.00000000000000E+00   0.00000000000000E+00   0.00000000000000E+00   0.00000000000000E+00
      0.00000000000000E+00   4.47767467645601E-16
      4.67000000000000E-01
      0.00000000000000E+00   0.00000000000000E+00   0.00000000000000E+00   0.00000000000000E+00  -2.04981611703172E-15
     -2.26012030661985E-16  -2.27582814769371E-15  -1.34982566010951E-15   0.00000000000000E+00   0.00000000000000E+00
      0.00000000000000E+00   0.00000000000000E+00  -9.71965609359290E-03  -2.75178565831720E-21  -9.71965609359290E-03
     -3.31098430819234E-16   1.40100000000000E+00   1.40100000000000E+00   0.00000000000000E+00   0.00000000000000E+00
      9.71965609359526E-03   2.85212553586704E-20   9.71965609359526E-03   1.30203282692518E-15   3.00000000000000E+00
      3.00000000000000E+00   0.00000000000000E+00   0.00000000000000E+00   0.00000000000000E+00   0.00000000000000E+00
      0.00000000000000E+00   4.39589010839064E-16
      4.92000000000000E-01
      0.00000000000000E+00   0.00000000000000E+00   0.00000000000000E+00   0.00000000000000E+00  -5.06128146093858E-14
     -2.30477965868316E-16  -5.08432925752541E-14  -1.37301889820927E-15   0.00000000000000E+00   0.00000000000000E+00
      0.00000000000000E+00   0.00000000000000E+00  -1.00239062866131E-02  -1.48799752185353E-21  -1.00239062866131E-02
     -3.49227864542352E-16   1.47600000000000E+00   1.47600000000000E+00   0.00000000000000E+00   0.00000000000000E+00
      1.00239062866655E-02  -3.25354482423698E-21   1.00239062866655E-02   1.35260406515473E-15   3.00000000000000E+00
      3.00000000000000E+00   0.00000000000000E+00   0.00000000000000E+00   0.00000000000000E+00   0.00000000000000E+00
      0.00000000000000E+00   4.31415566319901E-16
      5.17000000000000E-01
      0.00000000000000E+00   0.00000000000000E+00   0.00000000000000E+00   0.00000000000000E+00   1.47240078559049E-18
     -2.35059964775008E-16  -2.33587563989417E-16  -1.39617577577836E-15   0.00000000000000E+00   0.00000000000000E+00
      0.00000000000000E+00   0.00000000000000E+00  -1.03221023454367E-02  -1.16862189712724E-21  -1.03221023454367E-02
     -3.67023545146153E-16   1.55100000000000E+00   1.55100000000000E+00   0.00000000000000E+00   0.00000000000000E+00
      1.03221023454370E-02   7.16610345325711E-20   1.03221023454370E-02   1.40277742845267E-15   3.00000000000000E+00
      3.00000000000000E+00   0.00000000000000E+00   0.00000000000000E+00   0.00000000000000E+00   0.00000000000000E+00
      0.00000000000000E+00   4.23245135068492E-16
      5.42000000000000E-01
      0.00000000000000E+00   0.00000000000000E+00   0.00000000000000E+00   0.00000000000000E+00  -1.15645459704680E-15
     -2.39822362852175E-16  -1.39627695989897E-15  -1.41929231720976E-15   0.00000000000000E+00   0.00000000000000E+00
      0.00000000000000E+00   0.00000000000000E+00  -1.06151362057409E-02  -2.69791575718697E-21  -1.06151362057409E-02
     -3.84555326969069E-16   1.62600000000000E+00   1.62600000000000E+00   0.00000000000000E+00   0.00000000000000E+00
      1.06151362057423E-02   4.74950531316006E-20   1.06151362057423E-02   1.45262183580747E-15   3.00000000000000E+00
      3.00000000000000E+00   0.00000000000000E+00   0.00000000000000E+00   0.00000000000000E+00   0.00000000000000E+00
      0.00000000000000E+00   4.15076651476931E-16
      5.67000000000000E-01
      0.00000000000000E+00   0.00000000000000E+00   0.00000000000000E+00   0.00000000000000E+00  -9.18221083136101E-16
     -2.44750418540375E-16  -1.16297150167648E-15  -1.44236344868582E-15   0.00000000000000E+00   0.00000000000000E+00
      0.00000000000000E+00   0.00000000000000E+00  -1.09036564850179E-02  -2.79841336222893E-21  -1.09036564850179E-02
     -4.01876953776960E-16   1.70100000000000E+00   1.70100000000000E+00   0.00000000000000E+00   0.00000000000000E+00
      1.09036564850190E-02   2.80668706621923E-20   1.09036564850190E-02   1.50218801562525E-15   3.00000000000000E+00
      3.00000000000000E+00   0.00000000000000E+00   0.00000000000000E+00   0.00000000000000E+00   0.00000000000000E+00
      0.00000000000000E+00   4.06909277037692E-16
      5.92000000000000E-01
      0.00000000000000E+00   0.00000000000000E+00   0.00000000000000E+00   0.00000000000000E+00  -2.15755073567701E-14
     -2.50119820453668E-16  -2.18256271772238E-14  -1.46538104351493E-15   0.00000000000000E+00   0.00000000000000E+00
      0.00000000000000E+00   0.00000000000000E+00  -1.11881338765571E-02  -2.13319282628285E-21  -1.11881338765571E-02
     -4.19030367778473E-16   1.77600000000000E+00   1.77600000000000E+00   0.00000000000000E+00   0.00000000000000E+00
      1.11881338765790E-02   1.19843557857436E-19   1.11881338765790E-02   1.55151167958852E-15   3.00000000000000E+00
      3.00000000000000E+00   0.00000000000000E+00   0.00000000000000E+00   0.00000000000000E+00   0.00000000000000E+00
      0.00000000000000E+00   3.98742322884882E-16
      6.17000000000000E-01
      0.00000000000000E+00   0.00000000000000E+00   0.00000000000000E+00   0.00000000000000E+00  -4.14063019477333E-16
     -2.56849235151239E-16  -6.70912254628573E-16  -1.48833473049227E-15   0.00000000000000E+00   0.00000000000000E+00
      0.00000000000000E+00   0.00000000000000E+00  -1.14689032676428E-02  -8.96687490106685E-21  -1.14689032676428E-02
     -4.36047014923902E-16   1.85100000000000E+00   1.85100000000000E+00   0.00000000000000E+00   0.00000000000000E+00
      1.14689032676435E-02   5.55827449928875E-19   1.14689032676435E-02   1.60061502365925E-15   3.00000000000000E+00
      3.00000000000000E+00   0.00000000000000E+00   0.00000000000000E+00   0.00000000000000E+00   0.00000000000000E+00
      0.00000000000000E+00   3.90575422001012E-16
      6.42000000000000E-01
      0.00000000000000E+00   0.00000000000000E+00   0.00000000000000E+00   0.00000000000000E+00   1.03600814326756E-10
     -2.65564252904785E-16   1.03600548762504E-10  -1.51121225755497E-15   0.00000000000000E+00   0.00000000000000E+00
      0.00000000000000E+00   0.00000000000000E+00  -1.17461974323983E-02   1.76229662998989E-21  -1.17461974323983E-02
     -4.52950554898235E-16   1.92600000000000E+00   1.92600000000000E+00   0.00000000000000E+00   0.00000000000000E+00
      1.17461974338257E-02   9.63504446562415E-19   1.17461974338257E-02   1.64951022631439E-15   3.00000000000000E+00
      3.00000000000000E+00   0.00000000000000E+00   0.00000000000000E+00   0.00000000000000E+00   0.00000000000000E+00
      0.00000000000000E+00   3.82408375820036E-16
      6.67000000000000E-01
      0.00000000000000E+00   0.00000000000000E+00   0.00000000000000E+00   0.00000000000000E+00   8.30749726999711E-11
     -2.75167207798165E-16   8.30746975327633E-11  -1.53399913978640E-15   0.00000000000000E+00   0.00000000000000E+00
      0.00000000000000E+00   0.00000000000000E+00  -1.20201640120179E-02  -1.96393955939567E-21  -1.20201640120179E-02
     -4.69758763406671E-16   2.00100000000000E+00   2.00100000000000E+00   0.00000000000000E+00   0.00000000000000E+00
      1.20201640130817E-02   9.45896327969884E-21   1.20201640130817E-02   1.69820117109052E-15   3.00000000000000E+00
      3.00000000000000E+00   0.00000000000000E+00   0.00000000000000E+00   0.00000000000000E+00   0.00000000000000E+00
      0.00000000000000E+00   3.74241078572111E-16
      6.92000000000000E-01
      0.00000000000000E+00   0.00000000000000E+00   0.00000000000000E+00   0.00000000000000E+00   5.32310023819550E-18
     -2.86554219928698E-16  -2.81231119690503E-16  -1.55667863614836E-15   0.00000000000000E+00   0.00000000000000E+00
      0.00000000000000E+00   0.00000000000000E+00  -1.22908892875270E-02  -7.38875151026624E-22  -1.22908892875270E-02
     -4.86484515155910E-16   2.07600000000000E+00   2.07600000000000E+00   0.00000000000000E+00   0.00000000000000E+00
      1.22908892875272E-02   3.16292386647929E-20   1.22908892875272E-02   1.74668448152162E-15   3.00000000000000E+00
      3.00000000000000E+00   0.00000000000000E+00   0.00000000000000E+00   0.00000000000000E+00   0.00000000000000E+00
      0.00000000000000E+00   3.66073502317693E-16
      7.17000000000000E-01
      0.00000000000000E+00   0.00000000000000E+00   0.00000000000000E+00   0.00000000000000E+00   2.23114662183551E-17
     -2.96506375571050E-16  -2.74194909352695E-16  -1.57923137654904E-15   0.00000000000000E+00   0.00000000000000E+00
      0.00000000000000E+00   0.00000000000000E+00  -1.25584091052497E-02  -4.93397245870454E-21  -1.25584091052497E-02
     -5.03136529460108E-16   2.15100000000000E+00   2.15100000000000E+00   0.00000000000000E+00   0.00000000000000E+00
      1.25584091052500E-02   9.29623614768279E-20   1.25584091052500E-02   1.79494988021012E-15   3.00000000000000E+00
      3.00000000000000E+00   0.00000000000000E+00   0.00000000000000E+00   0.00000000000000E+00   0.00000000000000E+00
      0.00000000000000E+00   3.57905719175666E-16
      7.42000000000000E-01
      0.00000000000000E+00   0.00000000000000E+00   0.00000000000000E+00   0.00000000000000E+00   7.66742364739078E-17
     -3.04318939982778E-16  -2.27644703508870E-16  -1.60163544284927E-15   0.00000000000000E+00   0.00000000000000E+00
      0.00000000000000E+00   0.00000000000000E+00  -1.28227219077079E-02  -7.22926398242917E-21  -1.28227219077079E-02
     -5.19720287425483E-16   2.22600000000000E+00   2.22600000000000E+00   0.00000000000000E+00   0.00000000000000E+00
      1.28227219077082E-02   3.28131750595215E-19   1.28227219077082E-02   1.84298128465586E-15   3.00000000000000E+00
      3.00000000000000E+00   0.00000000000000E+00   0.00000000000000E+00   0.00000000000000E+00   0.00000000000000E+00
      0.00000000000000E+00   3.49737826895808E-16
      7.67000000000000E-01
      0.00000000000000E+00   0.00000000000000E+00   0.00000000000000E+00   0.00000000000000E+00   1.52895370436338E-16
     -3.10093429881223E-16  -1.57198059444885E-16  -1.62386555557330E-15   0.00000000000000E+00   0.00000000000000E+00
      0.00000000000000E+00   0.00000000000000E+00  -1.30837951077110E-02  -4.64256610676521E-21  -1.30837951077110E-02
     -5.36239313518544E-16   2.30100000000000E+00   2.30100000000000E+00   0.00000000000000E+00   0.00000000000000E+00
      1.30837951077112E-02   6.09962197808337E-20   1.30837951077112E-02   1.89075737381013E-15   3.00000000000000E+00
      3.00000000000000E+00   0.00000000000000E+00   0.00000000000000E+00   0.00000000000000E+00   0.00000000000000E+00
      0.00000000000000E+00   3.41569897953993E-16
      7.92000000000000E-01
      0.00000000000000E+00   0.00000000000000E+00   0.00000000000000E+00   0.00000000000000E+00  -6.56875418259948E-18
     -3.15072147395622E-16  -3.21640901578221E-16  -1.64589627046090E-15   0.00000000000000E+00   0.00000000000000E+00
      0.00000000000000E+00   0.00000000000000E+00  -1.33415870675721E-02  -3.40266060212967E-21  -1.33415870675721E-02
     -5.52693963357740E-16   2.37600000000000E+00   2.37600000000000E+00   0.00000000000000E+00   0.00000000000000E+00
      1.33415870675724E-02   2.00262679626778E-20   1.33415870675724E-02   1.93825336413943E-15   3.00000000000000E+00
      3.00000000000000E+00   0.00000000000000E+00   0.00000000000000E+00   0.00000000000000E+00   0.00000000000000E+00
      0.00000000000000E+00   3.33402125593338E-16
      8.17000000000000E-01
      0.00000000000000E+00   0.00000000000000E+00   0.00000000000000E+00   0.00000000000000E+00  -1.25616504567607E-14
     -3.18746929888781E-16  -1.28803973866495E-14  -1.66770190996757E-15   0.00000000000000E+00   0.00000000000000E+00
      0.00000000000000E+00   0.00000000000000E+00  -1.35960517169130E-02  -2.72075786573328E-21  -1.35960517169130E-02
     -5.69084049760697E-16   2.45100000000000E+00   2.45100000000000E+00   0.00000000000000E+00   0.00000000000000E+00
      1.35960517169272E-02  -6.20930440324104E-20   1.35960517169272E-02   1.98544363411041E-15   3.00000000000000E+00
      3.00000000000000E+00   0.00000000000000E+00   0.00000000000000E+00   0.00000000000000E+00   0.00000000000000E+00
      0.00000000000000E+00   3.25234776901409E-16
      8.42000000000000E-01
      0.00000000000000E+00   0.00000000000000E+00   0.00000000000000E+00   0.00000000000000E+00   2.55165332279948E-16
     -3.22370489063817E-16  -6.72051567838692E-17  -1.68926218283254E-15   0.00000000000000E+00   0.00000000000000E+00
      0.00000000000000E+00   0.00000000000000E+00  -1.38471723922812E-02  -2.46486266506863E-20  -1.38471723922812E-02
     -5.85410043303677E-16   2.52600000000000E+00   2.52600000000000E+00   0.00000000000000E+00   0.00000000000000E+00
      1.38471723922813E-02   1.04761186481697E-18   1.38471723922813E-02   2.03230868193108E-15   3.00000000000000E+00
      3.00000000000000E+00   0.00000000000000E+00   0.00000000000000E+00   0.00000000000000E+00   0.00000000000000E+00
      0.00000000000000E+00   3.17068067987714E-16
      8.67000000000000E-01
      0.00000000000000E+00   0.00000000000000E+00   0.00000000000000E+00   0.00000000000000E+00   1.12349805896136E-16