DF-ISE text

Info {
  version   = 1.0
  type      = xyplot
  datasets  = [
    "time"
    "substrate OuterVoltage" "substrate InnerVoltage" "substrate QuasiFermiPotential" "substrate DisplacementCurrent" "substrate eCurrent"
    "substrate hCurrent" "substrate TotalCurrent" "substrate Charge" "source OuterVoltage" "source InnerVoltage"
    "source QuasiFermiPotential" "source DisplacementCurrent" "source eCurrent" "source hCurrent" "source TotalCurrent"
    "source Charge" "drain OuterVoltage" "drain InnerVoltage" "drain QuasiFermiPotential" "drain DisplacementCurrent"
    "drain eCurrent" "drain hCurrent" "drain TotalCurrent" "drain Charge" "gate OuterVoltage"
    "gate InnerVoltage" "gate QuasiFermiPotential" "gate DisplacementCurrent" "gate eCurrent" "gate hCurrent"
    "gate TotalCurrent" "gate Charge" ]
  functions = [
    Time
    OuterVoltage InnerVoltage QuasiFermiPotential DisplacementCurrent eCurrent
    hCurrent TotalCurrent Charge OuterVoltage InnerVoltage
    QuasiFermiPotential DisplacementCurrent eCurrent hCurrent TotalCurrent
    Charge OuterVoltage InnerVoltage QuasiFermiPotential DisplacementCurrent
    eCurrent hCurrent TotalCurrent Charge OuterVoltage
    InnerVoltage QuasiFermiPotential DisplacementCurrent eCurrent hCurrent
    TotalCurrent Charge ]
}

Data {
      0.00000000000000E+00
      0.00000000000000E+00   0.00000000000000E+00   0.00000000000000E+00   0.00000000000000E+00   3.45144147167091E-19
      7.52007415773824E-28   3.45144147919098E-19  -8.89054979117713E-16   0.00000000000000E+00   0.00000000000000E+00
      0.00000000000000E+00   0.00000000000000E+00   8.50033956644416E-19  -3.86461239758182E-28   8.50033956257954E-19
      4.95941554605543E-16   0.00000000000000E+00   0.00000000000000E+00   0.00000000000000E+00   0.00000000000000E+00
     -5.83281181127830E-19  -3.65607902741100E-28  -5.83281181493437E-19   5.22855993713029E-16   0.00000000000000E+00
      0.00000000000000E+00   0.00000000000000E+00   0.00000000000000E+00   0.00000000000000E+00   0.00000000000000E+00
      0.00000000000000E+00  -1.27359945781674E-16
      1.00000000000000E-02
      0.00000000000000E+00   0.00000000000000E+00   0.00000000000000E+00   0.00000000000000E+00   5.94224031850007E-15
     -1.46180028976902E-17   5.92762231560238E-15  -8.98181116608598E-16   0.00000000000000E+00   0.00000000000000E+00
      0.00000000000000E+00   0.00000000000000E+00  -6.24558990920659E-04  -5.00782282933023E-23  -6.24558990920659E-04
      4.89805300283879E-16   3.00000000000000E-02   3.00000000000000E-02   0.00000000000000E+00   0.00000000000000E+00
      6.24558990913754E-04   3.76083240109676E-21   6.24558990913754E-04   5.41698531078289E-16   0.00000000000000E+00
      0.00000000000000E+00   0.00000000000000E+00   0.00000000000000E+00   0.00000000000000E+00   0.00000000000000E+00
      0.00000000000000E+00  -1.30966956749374E-16
      2.33333333333333E-02
      0.00000000000000E+00   0.00000000000000E+00   0.00000000000000E+00   0.00000000000000E+00  -3.39938033668514E-16
     -2.83663719387353E-17  -3.68304405607249E-16  -9.10760052450232E-16   0.00000000000000E+00   0.00000000000000E+00
      0.00000000000000E+00   0.00000000000000E+00  -1.28665983070709E-03  -1.08707300597184E-22  -1.28665983070709E-03
      4.79323749706671E-16   7.00000000000000E-02   7.00000000000000E-02   0.00000000000000E+00   0.00000000000000E+00
      1.28665983070746E-03   2.29740994759609E-21   1.28665983070746E-03   5.69622932914511E-16   0.00000000000000E+00
      0.00000000000000E+00   0.00000000000000E+00   0.00000000000000E+00   0.00000000000000E+00   0.00000000000000E+00
      0.00000000000000E+00  -1.35751834446921E-16
      4.20000000000000E-02
      0.00000000000000E+00   0.00000000000000E+00   0.00000000000000E+00   0.00000000000000E+00  -7.40596732539802E-15
     -4.24888243060743E-17  -7.44845614970409E-15  -9.29581282410972E-16   0.00000000000000E+00   0.00000000000000E+00
      0.00000000000000E+00   0.00000000000000E+00  -1.92795907356197E-03   5.44681741221686E-22  -1.92795907356197E-03
      4.59751016646669E-16   1.26000000000000E-01   1.26000000000000E-01   0.00000000000000E+00   0.00000000000000E+00
      1.92795907356941E-03  -1.30327409268218E-20   1.92795907356941E-03   6.15112272238335E-16   0.00000000000000E+00
      0.00000000000000E+00   0.00000000000000E+00   0.00000000000000E+00   0.00000000000000E+00   0.00000000000000E+00
      0.00000000000000E+00  -1.42378151924072E-16
      6.70000000000000E-02
      0.00000000000000E+00   0.00000000000000E+00   0.00000000000000E+00   0.00000000000000E+00  -4.15277937037082E-15
     -5.88656166820818E-17  -4.21164498705290E-15  -9.56169525514816E-16   0.00000000000000E+00   0.00000000000000E+00
      0.00000000000000E+00   0.00000000000000E+00  -2.48220789238694E-03  -1.15156045572193E-22  -2.48220789238694E-03
      4.27594733811522E-16   2.01000000000000E-01   2.01000000000000E-01   0.00000000000000E+00   0.00000000000000E+00
      2.48220789239130E-03   6.11381414140516E-21   2.48220789239130E-03   6.83792275462869E-16   0.00000000000000E+00
      0.00000000000000E+00   0.00000000000000E+00   0.00000000000000E+00   0.00000000000000E+00   0.00000000000000E+00
      0.00000000000000E+00  -1.51136696416538E-16
      9.20000000000000E-02
      0.00000000000000E+00   0.00000000000000E+00   0.00000000000000E+00   0.00000000000000E+00  -5.34012986183331E-15
     -7.55646933610865E-17  -5.41569455519440E-15  -9.83038998544901E-16   0.00000000000000E+00   0.00000000000000E+00
      0.00000000000000E+00   0.00000000000000E+00  -2.96241635495187E-03  -3.79646390702962E-22  -2.96241635495187E-03
      3.94463163385179E-16   2.76000000000000E-01   2.76000000000000E-01   0.00000000000000E+00   0.00000000000000E+00
      2.96241635495729E-03   1.04523084920196E-20   2.96241635495729E-03   7.53940741293440E-16   0.00000000000000E+00
      0.00000000000000E+00   0.00000000000000E+00   0.00000000000000E+00   0.00000000000000E+00   0.00000000000000E+00
      0.00000000000000E+00  -1.59829089327282E-16
      1.17000000000000E-01
      0.00000000000000E+00   0.00000000000000E+00   0.00000000000000E+00   0.00000000000000E+00   1.03502994157238E-13
     -9.10161388578941E-17   1.03411978018380E-13  -1.00961665801146E-15   0.00000000000000E+00   0.00000000000000E+00
      0.00000000000000E+00   0.00000000000000E+00  -3.44350418777833E-03  -3.21041322934975E-22  -3.44350418777833E-03
      3.62077834973529E-16   3.51000000000000E-01   3.51000000000000E-01   0.00000000000000E+00   0.00000000000000E+00
      3.44350418767497E-03  -3.06818728388721E-21   3.44350418767497E-03   8.23133895451348E-16   0.00000000000000E+00
      0.00000000000000E+00   0.00000000000000E+00   0.00000000000000E+00   0.00000000000000E+00   0.00000000000000E+00
      0.00000000000000E+00  -1.68477855365586E-16
      1.42000000000000E-01
      0.00000000000000E+00   0.00000000000000E+00   0.00000000000000E+00   0.00000000000000E+00  -5.14322178079986E-17
     -1.04365712219883E-16  -1.55797930027881E-16  -1.03577369443353E-15   0.00000000000000E+00   0.00000000000000E+00
      0.00000000000000E+00   0.00000000000000E+00  -3.92683650342639E-03  -5.90268149945227E-22  -3.92683650342639E-03
      3.30506821442487E-16   4.26000000000000E-01   4.26000000000000E-01   0.00000000000000E+00   0.00000000000000E+00
      3.92683650342655E-03   1.64652594275094E-20   3.92683650342655E-03   8.91112786177143E-16   0.00000000000000E+00
      0.00000000000000E+00   0.00000000000000E+00   0.00000000000000E+00   0.00000000000000E+00   0.00000000000000E+00
      0.00000000000000E+00  -1.77084769622621E-16
      1.67000000000000E-01
      0.00000000000000E+00   0.00000000000000E+00   0.00000000000000E+00   0.00000000000000E+00   5.29476802643900E-18
     -1.15984615829810E-16  -1.10689847803370E-16  -1.06160475966419E-15   0.00000000000000E+00   0.00000000000000E+00
      0.00000000000000E+00   0.00000000000000E+00  -4.40826943477864E-03  -5.62969388033116E-22  -4.40826943477864E-03
      2.99683581972526E-16   5.01000000000000E-01   5.01000000000000E-01   0.00000000000000E+00   0.00000000000000E+00
      4.40826943477875E-03   1.12509911000108E-20   4.40826943477875E-03   9.57985318870151E-16   0.00000000000000E+00
      0.00000000000000E+00   0.00000000000000E+00   0.00000000000000E+00   0.00000000000000E+00   0.00000000000000E+00
      0.00000000000000E+00  -1.85648552866819E-16
      1.92000000000000E-01
      0.00000000000000E+00   0.00000000000000E+00   0.00000000000000E+00   0.00000000000000E+00  -1.50057658272874E-18
     -1.29056433511828E-16  -1.30557010094557E-16  -1.08716244296194E-15   0.00000000000000E+00   0.00000000000000E+00
      0.00000000000000E+00   0.00000000000000E+00  -4.88423684504200E-03  -3.40853850391677E-22  -4.88423684504200E-03
      2.69616812033239E-16   5.76000000000000E-01   5.76000000000000E-01   0.00000000000000E+00   0.00000000000000E+00
      4.88423684504213E-03   4.40621682953269E-20   4.88423684504213E-03   1.02374991113524E-15   0.00000000000000E+00
      0.00000000000000E+00   0.00000000000000E+00   0.00000000000000E+00   0.00000000000000E+00   0.00000000000000E+00
      0.00000000000000E+00  -1.94167824683702E-16
      2.17000000000000E-01
      0.00000000000000E+00   0.00000000000000E+00   0.00000000000000E+00   0.00000000000000E+00  -3.32682437216181E-18
     -1.45996759790704E-16  -1.49323584162866E-16  -1.11242804998804E-15   0.00000000000000E+00   0.00000000000000E+00
      0.00000000000000E+00   0.00000000000000E+00  -5.35118103012757E-03  -7.43519764877548E-21  -5.35118103012757E-03
      2.40392536351770E-16   6.51000000000000E-01   6.51000000000000E-01   0.00000000000000E+00   0.00000000000000E+00
      5.35118103012772E-03   1.96075278645238E-20   5.35118103012772E-03   1.08827133228847E-15   0.00000000000000E+00
      0.00000000000000E+00   0.00000000000000E+00   0.00000000000000E+00   0.00000000000000E+00   0.00000000000000E+00
      0.00000000000000E+00  -2.02642505393309E-16
      2.42000000000000E-01
      0.00000000000000E+00   0.00000000000000E+00   0.00000000000000E+00   0.00000000000000E+00   4.25362021493249E-20
     -1.62973975178986E-16  -1.62931438976836E-16  -1.13736353238478E-15   0.00000000000000E+00   0.00000000000000E+00
      0.00000000000000E+00   0.00000000000000E+00  -5.80561612689682E-03  -4.92810240842153E-22  -5.80561612689682E-03
      2.12139232504937E-16   7.26000000000000E-01   7.26000000000000E-01   0.00000000000000E+00   0.00000000000000E+00
      5.80561612689698E-03   9.79549082297394E-21   5.80561612689698E-03   1.15136915065840E-15   0.00000000000000E+00
      0.00000000000000E+00   0.00000000000000E+00   0.00000000000000E+00   0.00000000000000E+00   0.00000000000000E+00
      0.00000000000000E+00  -2.11074135494348E-16
      2.67000000000000E-01
      0.00000000000000E+00   0.00000000000000E+00   0.00000000000000E+00   0.00000000000000E+00   2.26518198920515E-18
     -1.76287801182062E-16  -1.74022619192857E-16  -1.16194054833935E-15   0.00000000000000E+00   0.00000000000000E+00
      0.00000000000000E+00   0.00000000000000E+00  -6.24441471602998E-03  -5.77121115737548E-22  -6.24441471602998E-03
      1.84990316123029E-16   8.01000000000000E-01   8.01000000000000E-01   0.00000000000000E+00   0.00000000000000E+00
      6.24441471603016E-03   9.32104586612193E-21   6.24441471603016E-03   1.21287962365454E-15   0.00000000000000E+00
      0.00000000000000E+00   0.00000000000000E+00   0.00000000000000E+00   0.00000000000000E+00   0.00000000000000E+00
      0.00000000000000E+00  -2.19465079576268E-16
      2.92000000000000E-01
      0.00000000000000E+00   0.00000000000000E+00   0.00000000000000E+00   0.00000000000000E+00   2.14416958088806E-14
     -1.86489713573775E-16   2.12552060953068E-14  -1.18616545858607E-15   0.00000000000000E+00   0.00000000000000E+00
      0.00000000000000E+00   0.00000000000000E+00  -6.66502546727059E-03  -3.91807782941113E-21  -6.66502546727059E-03
      1.59057779818441E-16   8.76000000000000E-01   8.76000000000000E-01   0.00000000000000E+00   0.00000000000000E+00
      6.66502546709411E-03   2.16091871568129E-19   6.66502546709411E-03   1.27270091450570E-15   0.00000000000000E+00
      0.00000000000000E+00   0.00000000000000E+00   0.00000000000000E+00   0.00000000000000E+00   0.00000000000000E+00
      0.00000000000000E+00  -2.27818185099951E-16
      3.17000000000000E-01
      0.00000000000000E+00   0.00000000000000E+00   0.00000000000000E+00   0.00000000000000E+00   3.51099772540611E-18
     -1.93608294823218E-16  -1.90097297097812E-16  -1.21008621307935E-15   0.00000000000000E+00   0.00000000000000E+00
      0.00000000000000E+00   0.00000000000000E+00  -7.06599785039520E-03  -1.24389141311894E-21  -7.06599785039520E-03
      1.34430110883913E-16   9.51000000000000E-01   9.51000000000000E-01   0.00000000000000E+00   0.00000000000000E+00
      7.06599785039539E-03   1.43930958097913E-20   7.06599785039539E-03   1.33079991479431E-15   0.00000000000000E+00
      0.00000000000000E+00   0.00000000000000E+00   0.00000000000000E+00   0.00000000000000E+00   0.00000000000000E+00
      0.00000000000000E+00  -2.36135782657163E-16
      3.42000000000000E-01
      0.00000000000000E+00   0.00000000000000E+00   0.00000000000000E+00   0.00000000000000E+00   1.36382089345852E-13
     -1.99863815726029E-16   1.36182225530126E-13  -1.23377133792846E-15   0.00000000000000E+00   0.00000000000000E+00
      0.00000000000000E+00   0.00000000000000E+00  -7.44648140110547E-03   1.99312300648213E-22  -7.44648140110547E-03
      1.11162950265836E-16   1.02600000000000E+00   1.02600000000000E+00   0.00000000000000E+00   0.00000000000000E+00
      7.44648140088261E-03  -1.34056214331817E-19   7.44648140088261E-03   1.38720153043330E-15   0.00000000000000E+00
      0.00000000000000E+00   0.00000000000000E+00   0.00000000000000E+00   0.00000000000000E+00   0.00000000000000E+00
      0.00000000000000E+00  -2.44420308210295E-16
      3.67000000000000E-01
      0.00000000000000E+00   0.00000000000000E+00   0.00000000000000E+00   0.00000000000000E+00  -6.14405483785210E-18
     -2.06132755406522E-16  -2.12276810244374E-16  -1.25728920169303E-15   0.00000000000000E+00   0.00000000000000E+00
      0.00000000000000E+00   0.00000000000000E+00  -7.80688593032091E-03  -3.47273225663419E-21  -7.80688593032091E-03
      8.92187681119687E-17   1.10100000000000E+00   1.10100000000000E+00   0.00000000000000E+00   0.00000000000000E+00
      7.80688593032112E-03   8.98431018966719E-20   7.80688593032112E-03   1.44202173125960E-15   0.00000000000000E+00
      0.00000000000000E+00   0.00000000000000E+00   0.00000000000000E+00   0.00000000000000E+00   0.00000000000000E+00
      0.00000000000000E+00  -2.52676228696828E-16
      3.92000000000000E-01
      0.00000000000000E+00   0.00000000000000E+00   0.00000000000000E+00   0.00000000000000E+00   4.10212472561854E-16
     -2.11477455071372E-16   1.98735017490482E-16  -1.28069484721198E-15   0.00000000000000E+00   0.00000000000000E+00
      0.00000000000000E+00   0.00000000000000E+00  -8.14957301673324E-03  -8.84153671567921E-21  -8.14957301673324E-03
      6.84491450899321E-17   1.17600000000000E+00   1.17600000000000E+00   0.00000000000000E+00   0.00000000000000E+00
      8.14957301673680E-03   3.54946715796635E-19   8.14957301673680E-03   1.49548628879414E-15   0.00000000000000E+00
      0.00000000000000E+00   0.00000000000000E+00   0.00000000000000E+00   0.00000000000000E+00   0.00000000000000E+00
      0.00000000000000E+00  -2.60908550687199E-16
      4.17000000000000E-01
      0.00000000000000E+00   0.00000000000000E+00   0.00000000000000E+00   0.00000000000000E+00  -1.70212090368206E-15
     -2.15733052908653E-16  -1.91785395659071E-15  -1.30402640961124E-15   0.00000000000000E+00   0.00000000000000E+00
      0.00000000000000E+00   0.00000000000000E+00  -8.47790385487059E-03  -2.31388139232506E-21  -8.47790385487059E-03
      4.86205881928499E-17   1.25100000000000E+00   1.25100000000000E+00   0.00000000000000E+00   0.00000000000000E+00
      8.47790385487313E-03   3.58286213269998E-20   8.47790385487313E-03   1.54788151054390E-15   0.00000000000000E+00
      0.00000000000000E+00   0.00000000000000E+00   0.00000000000000E+00   0.00000000000000E+00   0.00000000000000E+00
      0.00000000000000E+00  -2.69123314626773E-16
      4.42000000000000E-01
      0.00000000000000E+00   0.00000000000000E+00   0.00000000000000E+00   0.00000000000000E+00  -2.20531629164141E-15
     -2.20628198491072E-16  -2.42594449013249E-15  -1.32730636684503E-15   0.00000000000000E+00   0.00000000000000E+00
      0.00000000000000E+00   0.00000000000000E+00  -8.79504528737208E-03  -4.71498857047463E-21  -8.79504528737208E-03
      2.95068028459155E-17   1.32600000000000E+00   1.32600000000000E+00   0.00000000000000E+00   0.00000000000000E+00
      8.79504528737458E-03   1.12667201551308E-19   8.79504528737458E-03   1.59946815170625E-15   0.00000000000000E+00
      0.00000000000000E+00   0.00000000000000E+00   0.00000000000000E+00   0.00000000000000E+00   0.00000000000000E+00
      0.00000000000000E+00  -2.77325451695027E-16
      4.67000000000000E-01
      0.00000000000000E+00   0.00000000000000E+00   0.00000000000000E+00   0.00000000000000E+00  -2.02320101189268E-15
     -2.25397914853337E-16  -2.24859892674602E-15  -1.35054737654327E-15   0.00000000000000E+00   0.00000000000000E+00
      0.00000000000000E+00   0.00000000000000E+00  -9.10351749678664E-03  -2.21289376811041E-21  -9.10351749678664E-03
      1.09384923988333E-17   1.40100000000000E+00   1.40100000000000E+00   0.00000000000000E+00   0.00000000000000E+00
      9.10351749678888E-03   2.69633098211127E-20   9.10351749678888E-03   1.65043898559255E-15   0.00000000000000E+00
      0.00000000000000E+00   0.00000000000000E+00   0.00000000000000E+00   0.00000000000000E+00   0.00000000000000E+00
      0.00000000000000E+00  -2.85518067970933E-16
      4.92000000000000E-01
      0.00000000000000E+00   0.00000000000000E+00   0.00000000000000E+00   0.00000000000000E+00   1.58565508057335E-18
     -2.29957139468535E-16  -2.28371484387962E-16  -1.37375282788484E-15   0.00000000000000E+00   0.00000000000000E+00
      0.00000000000000E+00   0.00000000000000E+00  -9.40502549987764E-03  -1.66035698668586E-21  -9.40502549987764E-03
     -7.20911951740592E-18   1.47600000000000E+00   1.47600000000000E+00   0.00000000000000E+00   0.00000000000000E+00
      9.40502549987787E-03   7.79774702569514E-20   9.40502549987787E-03   1.70092784782606E-15   0.00000000000000E+00
      0.00000000000000E+00   0.00000000000000E+00   0.00000000000000E+00   0.00000000000000E+00   0.00000000000000E+00
      0.00000000000000E+00  -2.93703443838206E-16
      5.17000000000000E-01
      0.00000000000000E+00   0.00000000000000E+00   0.00000000000000E+00   0.00000000000000E+00  -1.29083257025108E-15
     -2.34432557534681E-16  -1.52526512778576E-15  -1.39692106209806E-15   0.00000000000000E+00   0.00000000000000E+00
      0.00000000000000E+00   0.00000000000000E+00  -9.70074992193774E-03  -2.18772217827476E-21  -9.70074992193774E-03
     -2.50275091357565E-17   1.55100000000000E+00   1.55100000000000E+00   0.00000000000000E+00   0.00000000000000E+00
      9.70074992193926E-03   2.64152188956033E-20   9.70074992193926E-03   1.75102780454474E-15   0.00000000000000E+00
      0.00000000000000E+00   0.00000000000000E+00   0.00000000000000E+00   0.00000000000000E+00   0.00000000000000E+00
      0.00000000000000E+00  -3.01883245401829E-16
      5.42000000000000E-01
      0.00000000000000E+00   0.00000000000000E+00   0.00000000000000E+00   0.00000000000000E+00  -1.16092820084103E-15
     -2.39244129515044E-16  -1.40017233035607E-15  -1.42004803767745E-15   0.00000000000000E+00   0.00000000000000E+00
      0.00000000000000E+00   0.00000000000000E+00  -9.99153669701934E-03  -2.65505666062666E-21  -9.99153669701934E-03
     -4.25853701764682E-17   1.62600000000000E+00   1.62600000000000E+00   0.00000000000000E+00   0.00000000000000E+00
      9.99153669702073E-03   3.03003942285945E-20   9.99153669702073E-03   1.80080574213321E-15   0.00000000000000E+00
      0.00000000000000E+00   0.00000000000000E+00   0.00000000000000E+00   0.00000000000000E+00   0.00000000000000E+00
      0.00000000000000E+00  -3.10058714325267E-16
      5.67000000000000E-01
      0.00000000000000E+00   0.00000000000000E+00   0.00000000000000E+00   0.00000000000000E+00  -8.82941911430919E-16
     -2.44215941102642E-16  -1.12715785253356E-15  -1.44312853296758E-15   0.00000000000000E+00   0.00000000000000E+00
      0.00000000000000E+00   0.00000000000000E+00  -1.02779996929512E-02  -3.33383332983240E-21  -1.02779996929512E-02
     -5.99354214369306E-17   1.70100000000000E+00   1.70100000000000E+00   0.00000000000000E+00   0.00000000000000E+00
      1.02779996929524E-02   4.27904298453681E-20   1.02779996929524E-02   1.85031073711202E-15   0.00000000000000E+00
      0.00000000000000E+00   0.00000000000000E+00   0.00000000000000E+00   0.00000000000000E+00   0.00000000000000E+00
      0.00000000000000E+00  -3.18230812452106E-16
      5.92000000000000E-01
      0.00000000000000E+00   0.00000000000000E+00   0.00000000000000E+00   0.00000000000000E+00   1.07242589305177E-10
     -2.49440457762333E-16   1.07242339864719E-10  -1.46615390218293E-15   0.00000000000000E+00   0.00000000000000E+00
      0.00000000000000E+00   0.00000000000000E+00  -1.05605668527274E-02  -1.69581902013244E-21  -1.05605668527274E-02
     -7.71183747612150E-17   1.77600000000000E+00   1.77600000000000E+00   0.00000000000000E+00   0.00000000000000E+00
      1.05605668023055E-02  -2.43744860527127E-20   1.05605668023055E-02   1.89957591038332E-15   0.00000000000000E+00
      0.00000000000000E+00   0.00000000000000E+00   0.00000000000000E+00   0.00000000000000E+00   0.00000000000000E+00
      0.00000000000000E+00  -3.26400216565188E-16
      6.17000000000000E-01
      0.00000000000000E+00   0.00000000000000E+00   0.00000000000000E+00   0.00000000000000E+00   1.17492945806522E-10
     -2.55493267460054E-16   1.17492690313255E-10  -1.48911415431750E-15   0.00000000000000E+00   0.00000000000000E+00
      0.00000000000000E+00   0.00000000000000E+00  -1.08395503798203E-02  -1.84898953627350E-21  -1.08395503798203E-02
     -9.41644053826065E-17   1.85100000000000E+00   1.85100000000000E+00   0.00000000000000E+00   0.00000000000000E+00
      1.08395503099972E-02  -2.95635535938222E-19   1.08395503099972E-02   1.94862210587304E-15   0.00000000000000E+00
      0.00000000000000E+00   0.00000000000000E+00   0.00000000000000E+00   0.00000000000000E+00   0.00000000000000E+00
      0.00000000000000E+00  -3.34567359931760E-16
      6.42000000000000E-01
      0.00000000000000E+00   0.00000000000000E+00   0.00000000000000E+00   0.00000000000000E+00   1.02987130912035E-10
     -2.63658884781079E-16   1.02986867253150E-10  -1.51199673310839E-15   0.00000000000000E+00   0.00000000000000E+00
      0.00000000000000E+00   0.00000000000000E+00  -1.11151584019186E-02  -1.01022822242156E-21  -1.11151584019186E-02
     -1.11096566644431E-16   1.92600000000000E+00   1.92600000000000E+00   0.00000000000000E+00   0.00000000000000E+00
      1.11151583370328E-02  -4.54221744568353E-19   1.11151583370328E-02   1.99746026444916E-15   0.00000000000000E+00
      0.00000000000000E+00   0.00000000000000E+00   0.00000000000000E+00   0.00000000000000E+00   0.00000000000000E+00
      0.00000000000000E+00  -3.42732522037862E-16
      6.67000000000000E-01
      0.00000000000000E+00   0.00000000000000E+00   0.00000000000000E+00   0.00000000000000E+00  -5.49709525853982E-15
     -2.75095514269839E-16  -5.77219077280966E-15  -1.53478706274897E-15   0.00000000000000E+00   0.00000000000000E+00
      0.00000000000000E+00   0.00000000000000E+00  -1.13875212080432E-02  -1.52547630335513E-20  -1.13875212080432E-02
     -1.27932060380156E-16   2.00100000000000E+00   2.00100000000000E+00   0.00000000000000E+00   0.00000000000000E+00
      1.13875212080489E-02   4.17619936478029E-19   1.13875212080489E-02   2.04609332472924E-15   0.00000000000000E+00
      0.00000000000000E+00   0.00000000000000E+00   0.00000000000000E+00   0.00000000000000E+00   0.00000000000000E+00
      0.00000000000000E+00  -3.50895881114607E-16
      6.92000000000000E-01
      0.00000000000000E+00   0.00000000000000E+00   0.00000000000000E+00   0.00000000000000E+00  -7.47487302661341E-17
     -2.86591515177409E-16  -3.61340245443543E-16  -1.55746830140262E-15   0.00000000000000E+00   0.00000000000000E+00
      0.00000000000000E+00   0.00000000000000E+00  -1.16567107371896E-02  -1.09288963470780E-20  -1.16567107371896E-02
     -1.44683283722681E-16   2.07600000000000E+00   2.07600000000000E+00   0.00000000000000E+00   0.00000000000000E+00
      1.16567107371899E-02   5.73449515129779E-19   1.16567107371899E-02   2.09451708537311E-15   0.00000000000000E+00
      0.00000000000000E+00   0.00000000000000E+00   0.00000000000000E+00   0.00000000000000E+00   0.00000000000000E+00
      0.00000000000000E+00  -3.59057532168750E-16
      7.17000000000000E-01
      0.00000000000000E+00   0.00000000000000E+00   0.00000000000000E+00   0.00000000000000E+00   2.82007656024336E-17
     -2.95893599408757E-16  -2.67692833806324E-16  -1.58002099104134E-15   0.00000000000000E+00   0.00000000000000E+00
      0.00000000000000E+00   0.00000000000000E+00  -1.19227505507974E-02  -3.05926639117878E-21  -1.19227505507974E-02
     -1.61358642504882E-16   2.15100000000000E+00   2.15100000000000E+00   0.00000000000000E+00   0.00000000000000E+00
      1.19227505507977E-02   2.73727949576684E-20   1.19227505507977E-02   2.14272069725981E-15   0.00000000000000E+00
      0.00000000000000E+00   0.00000000000000E+00   0.00000000000000E+00   0.00000000000000E+00   0.00000000000000E+00
      0.00000000000000E+00  -3.67217510168079E-16
      7.42000000000000E-01
      0.00000000000000E+00   0.00000000000000E+00   0.00000000000000E+00   0.00000000000000E+00   9.23035321482500E-17
     -3.03678869604291E-16  -2.11375337456041E-16  -1.60242302865334E-15   0.00000000000000E+00   0.00000000000000E+00
      0.00000000000000E+00   0.00000000000000E+00  -1.21856298598969E-02  -1.04631082776552E-20  -1.21856298598969E-02
     -1.77963484765368E-16   2.22600000000000E+00   2.22600000000000E+00   0.00000000000000E+00   0.00000000000000E+00
      1.21856298598971E-02   2.99628329111106E-19   1.21856298598971E-02   2.19068763170971E-15   0.00000000000000E+00
      0.00000000000000E+00   0.00000000000000E+00   0.00000000000000E+00   0.00000000000000E+00   0.00000000000000E+00
      0.00000000000000E+00  -3.75375828416894E-16
      7.67000000000000E-01
      0.00000000000000E+00   0.00000000000000E+00   0.00000000000000E+00   0.00000000000000E+00   1.65353504554516E-16
     -3.09412075804289E-16  -1.44058571249773E-16  -1.62464915246566E-15   0.00000000000000E+00   0.00000000000000E+00
      0.00000000000000E+00   0.00000000000000E+00  -1.24453077105903E-02  -3.35946990822923E-21  -1.24453077105903E-02
     -1.94501040740413E-16   2.30100000000000E+00   2.30100000000000E+00   0.00000000000000E+00   0.00000000000000E+00
      1.24453077105905E-02   2.86465865180083E-20   1.24453077105905E-02   2.23839610300500E-15   0.00000000000000E+00
      0.00000000000000E+00   0.00000000000000E+00   0.00000000000000E+00   0.00000000000000E+00   0.00000000000000E+00
      0.00000000000000E+00  -3.83532471838292E-16
      7.92000000000000E-01
      0.00000000000000E+00   0.00000000000000E+00   0.00000000000000E+00   0.00000000000000E+00   2.76230904318414E-16
     -3.14833060124627E-16  -3.86021558062132E-17  -1.64667394179859E-15   0.00000000000000E+00   0.00000000000000E+00
      0.00000000000000E+00   0.00000000000000E+00  -1.27017376070583E-02  -1.11204454342495E-20  -1.27017376070583E-02
     -2.10971616021122E-16   2.37600000000000E+00   2.37600000000000E+00   0.00000000000000E+00   0.00000000000000E+00
      1.27017376070583E-02   4.85915458494213E-19   1.27017376070583E-02   2.28582122306556E-15   0.00000000000000E+00
      0.00000000000000E+00   0.00000000000000E+00   0.00000000000000E+00   0.00000000000000E+00   0.00000000000000E+00
      0.00000000000000E+00  -3.91687366317897E-16
      8.17000000000000E-01
      0.00000000000000E+00   0.00000000000000E+00   0.00000000000000E+00   0.00000000000000E+00   3.22099491757750E-16
     -3.18097355725570E-16   4.00213603217978E-18  -1.66847199797166E-15   0.00000000000000E+00   0.00000000000000E+00
      0.00000000000000E+00   0.00000000000000E+00  -1.29548725622206E-02  -3.69197839302345E-21  -1.29548725622206E-02
     -2.27375261539872E-16   2.45100000000000E+00   2.45100000000000E+00   0.00000000000000E+00   0.00000000000000E+00
      1.29548725622205E-02   3.09370855119758E-20   1.29548725622205E-02   2.33293788103674E-15   0.00000000000000E+00
      0.00000000000000E+00   0.00000000000000E+00   0.00000000000000E+00   0.00000000000000E+00   0.00000000000000E+00
      0.00000000000000E+00  -3.99840409786331E-16
      8.42000000000000E-01
      0.00000000000000E+00   0.00000000000000E+00   0.00000000000000E+00   0.00000000000000E+00   2.43726498861843E-16
     -3.21006068349817E-16  -7.72795694879733E-17  -1.69002374418594E-15   0.00000000000000E+00   0.00000000000000E+00
      0.00000000000000E+00   0.00000000000000E+00  -1.32046987810097E-02  -1.14550544639619E-20  -1.32046987810097E-02
     -2.43712819941177E-16   2.52600000000000E+00   2.52600000000000E+00   0.00000000000000E+00   0.00000000000000E+00
      1.32046987810097E-02   4.40624464055524E-19   1.32046987810097E-02   2.37972770667246E-15   0.00000000000000E+00
      0.00000000000000E+00   0.00000000000000E+00   0.00000000000000E+00   0.00000000000000E+00   0.00000000000000E+00
      0.00000000000000E+00  -4.07991590316178E-16
      8.67000000000000E-01
      0.00000000000000E+00   0.00000000000000E+00   0.00000000000000E+00   0.00000000000000E+00   9.58144628190432E-17