DF-ISE text

Info {
  version   = 1.0
  type      = xyplot
  datasets  = [
    "time"
    "substrate OuterVoltage" "substrate InnerVoltage" "substrate QuasiFermiPotential" "substrate DisplacementCurrent" "substrate eCurrent"
    "substrate hCurrent" "substrate TotalCurrent" "substrate Charge" "source OuterVoltage" "source InnerVoltage"
    "source QuasiFermiPotential" "source DisplacementCurrent" "source eCurrent" "source hCurrent" "source TotalCurrent"
    "source Charge" "drain OuterVoltage" "drain InnerVoltage" "drain QuasiFermiPotential" "drain DisplacementCurrent"
    "drain eCurrent" "drain hCurrent" "drain TotalCurrent" "drain Charge" "gate OuterVoltage"
    "gate InnerVoltage" "gate QuasiFermiPotential" "gate DisplacementCurrent" "gate eCurrent" "gate hCurrent"
    "gate TotalCurrent" "gate Charge" ]
  functions = [
    Time
    OuterVoltage InnerVoltage QuasiFermiPotential DisplacementCurrent eCurrent
    hCurrent TotalCurrent Charge OuterVoltage InnerVoltage
    QuasiFermiPotential DisplacementCurrent eCurrent hCurrent TotalCurrent
    Charge OuterVoltage InnerVoltage QuasiFermiPotential DisplacementCurrent
    eCurrent hCurrent TotalCurrent Charge OuterVoltage
    InnerVoltage QuasiFermiPotential DisplacementCurrent eCurrent hCurrent
    TotalCurrent Charge ]
}

Data {
      0.00000000000000E+00
      0.00000000000000E+00   0.00000000000000E+00   0.00000000000000E+00   0.00000000000000E+00   3.13467815805639E-18
     -3.58954490509911E-28   3.13467815769744E-18  -3.39586782941400E-15   0.00000000000000E+00   0.00000000000000E+00
      0.00000000000000E+00   0.00000000000000E+00  -1.92983469776371E-18   1.14177592213674E-27  -1.92983469662194E-18
      8.58306518876677E-16   0.00000000000000E+00   0.00000000000000E+00   0.00000000000000E+00   0.00000000000000E+00
     -1.20484346029280E-18  -7.82704969579508E-28  -1.20484346107550E-18   8.58306518876677E-16   3.00000000000000E+00
      3.00000000000000E+00   0.00000000000000E+00   0.00000000000000E+00   0.00000000000000E+00   0.00000000000000E+00
      0.00000000000000E+00   1.67925479166065E-15
      1.00000000000000E-02
      0.00000000000000E+00   0.00000000000000E+00   0.00000000000000E+00   0.00000000000000E+00   1.04722935128120E-17
     -2.91059982305866E-17  -1.86337047177747E-17  -3.41374057688070E-15   0.00000000000000E+00   0.00000000000000E+00
      0.00000000000000E+00   0.00000000000000E+00  -5.86156495879574E-06  -4.53618252240216E-25  -5.86156495879574E-06
      8.58224241413005E-16   3.00000000000000E-02   3.00000000000000E-02   0.00000000000000E+00   0.00000000000000E+00
      5.86156495881436E-06   1.47361132610555E-20   5.86156495881438E-06   8.85598742589335E-16   3.00000000000000E+00
      3.00000000000000E+00   0.00000000000000E+00   0.00000000000000E+00   0.00000000000000E+00   0.00000000000000E+00
      0.00000000000000E+00   1.66991759287837E-15
      2.33333333333333E-02
      0.00000000000000E+00   0.00000000000000E+00   0.00000000000000E+00   0.00000000000000E+00  -5.31903451744429E-19
     -5.50928057521341E-17  -5.56247092038786E-17  -3.43778542484019E-15   0.00000000000000E+00   0.00000000000000E+00
      0.00000000000000E+00   0.00000000000000E+00  -1.16159828412009E-05  -9.00842184147973E-25  -1.16159828412009E-05
      8.58139035502435E-16   7.00000000000000E-02   7.00000000000000E-02   0.00000000000000E+00   0.00000000000000E+00
      1.16159828412565E-05   2.95636525874737E-20   1.16159828412565E-05   9.21746444434569E-16   3.00000000000000E+00
      3.00000000000000E+00   0.00000000000000E+00   0.00000000000000E+00   0.00000000000000E+00   0.00000000000000E+00
      0.00000000000000E+00   1.65789994490318E-15
      4.24444444444445E-02
      0.00000000000000E+00   0.00000000000000E+00   0.00000000000000E+00   0.00000000000000E+00   2.79517646824934E-18
     -8.49227832384340E-17  -8.21276067701846E-17  -3.47299836328993E-15   0.00000000000000E+00   0.00000000000000E+00
      0.00000000000000E+00   0.00000000000000E+00  -1.66078989496366E-05  -1.28926671697048E-24  -1.66078989496366E-05
      8.58060576100671E-16   1.27333333333333E-01   1.27333333333333E-01   0.00000000000000E+00   0.00000000000000E+00
      1.66078989497187E-05   2.16252650140111E-20   1.66078989497187E-05   9.73132773188817E-16   3.00000000000000E+00
      3.00000000000000E+00   0.00000000000000E+00   0.00000000000000E+00   0.00000000000000E+00   0.00000000000000E+00
      0.00000000000000E+00   1.64180501400044E-15
      6.74444444444444E-02
      0.00000000000000E+00   0.00000000000000E+00   0.00000000000000E+00   0.00000000000000E+00  -5.88242713777325E-18
     -1.26592071588631E-16  -1.32474498726404E-16  -3.52091590112535E-15   0.00000000000000E+00   0.00000000000000E+00
      0.00000000000000E+00   0.00000000000000E+00  -1.95084160218882E-05  -1.51667624795146E-24  -1.95084160218882E-05
      8.58012509742764E-16   2.02333333333333E-01   2.02333333333333E-01   0.00000000000000E+00   0.00000000000000E+00
      1.95084160220206E-05   3.70696728607742E-20   1.95084160220206E-05   1.03970818355489E-15   3.00000000000000E+00
      3.00000000000000E+00   0.00000000000000E+00   0.00000000000000E+00   0.00000000000000E+00   0.00000000000000E+00
      0.00000000000000E+00   1.62319520782769E-15
      9.24444444444444E-02
      0.00000000000000E+00   0.00000000000000E+00   0.00000000000000E+00   0.00000000000000E+00   1.56277927490207E-18
     -1.84255268050645E-16  -1.82692488775743E-16  -3.57069240567361E-15   0.00000000000000E+00   0.00000000000000E+00
      0.00000000000000E+00   0.00000000000000E+00  -2.06828614889992E-05  -1.60284620938792E-24  -2.06828614889992E-05
      8.57992391593611E-16   2.77333333333333E-01   2.77333333333333E-01   0.00000000000000E+00   0.00000000000000E+00
      2.06828614891819E-05   2.79797607368074E-20   2.06828614891819E-05   1.10568308801725E-15   3.00000000000000E+00
      3.00000000000000E+00   0.00000000000000E+00   0.00000000000000E+00   0.00000000000000E+00   0.00000000000000E+00
      0.00000000000000E+00   1.60701692606275E-15
      1.17444444444444E-01
      0.00000000000000E+00   0.00000000000000E+00   0.00000000000000E+00   0.00000000000000E+00   9.24468080167911E-18
     -2.64064216409536E-16  -2.54819535607857E-16  -3.62143310198860E-15   0.00000000000000E+00   0.00000000000000E+00
      0.00000000000000E+00   0.00000000000000E+00  -2.13630684149702E-05  -1.65779465143899E-24  -2.13630684149702E-05
      8.57980543035231E-16   3.52333333333333E-01   3.52333333333333E-01   0.00000000000000E+00   0.00000000000000E+00
      2.13630684152250E-05   2.28606709387918E-20   2.13630684152250E-05   1.17112682519201E-15   3.00000000000000E+00
      3.00000000000000E+00   0.00000000000000E+00   0.00000000000000E+00   0.00000000000000E+00   0.00000000000000E+00
      0.00000000000000E+00   1.59232573376135E-15
      1.42444444444444E-01
      0.00000000000000E+00   0.00000000000000E+00   0.00000000000000E+00   0.00000000000000E+00   1.30462083677770E-16
     -3.52821248795214E-16  -2.22359165117445E-16  -3.67249111001370E-15   0.00000000000000E+00   0.00000000000000E+00
      0.00000000000000E+00   0.00000000000000E+00  -2.18716564466430E-05  -1.69555234309354E-24  -2.18716564466430E-05
      8.57971586143292E-16   4.27333333333333E-01   4.27333333333333E-01   0.00000000000000E+00   0.00000000000000E+00
      2.18716564468653E-05   1.21449023190967E-19   2.18716564468654E-05   1.23601695914047E-15   3.00000000000000E+00
      3.00000000000000E+00   0.00000000000000E+00   0.00000000000000E+00   0.00000000000000E+00   0.00000000000000E+00
      0.00000000000000E+00   1.57850256472993E-15
      1.67444444444444E-01
      0.00000000000000E+00   0.00000000000000E+00   0.00000000000000E+00   0.00000000000000E+00   8.17593493183330E-19
     -4.39327669314461E-16  -4.38510075821278E-16  -3.72356808395835E-15   0.00000000000000E+00   0.00000000000000E+00
      0.00000000000000E+00   0.00000000000000E+00  -2.22922684042959E-05  -1.73131207436934E-24  -2.22922684042959E-05
      8.57964113790260E-16   5.02333333333333E-01   5.02333333333333E-01   0.00000000000000E+00   0.00000000000000E+00
      2.22922684047343E-05   8.58807022805212E-20   2.22922684047344E-05   1.30029627034323E-15   3.00000000000000E+00
      3.00000000000000E+00   0.00000000000000E+00   0.00000000000000E+00   0.00000000000000E+00   0.00000000000000E+00
      0.00000000000000E+00   1.56530769982486E-15
      1.92444444444444E-01
      0.00000000000000E+00   0.00000000000000E+00   0.00000000000000E+00   0.00000000000000E+00   4.78888437969412E-16
     -5.33773641907850E-16  -5.48852039384383E-17  -3.77446907426062E-15   0.00000000000000E+00   0.00000000000000E+00
      0.00000000000000E+00   0.00000000000000E+00  -2.26543894876157E-05  -1.75666762066442E-24  -2.26543894876157E-05
      8.57957632459266E-16   5.77333333333333E-01   5.77333333333333E-01   0.00000000000000E+00   0.00000000000000E+00
      2.26543894876705E-05   3.56106143731250E-20   2.26543894876706E-05   1.36384811786496E-15   3.00000000000000E+00
      3.00000000000000E+00   0.00000000000000E+00   0.00000000000000E+00   0.00000000000000E+00   0.00000000000000E+00
      0.00000000000000E+00   1.55266332393639E-15
      2.17444444444444E-01
      0.00000000000000E+00   0.00000000000000E+00   0.00000000000000E+00   0.00000000000000E+00   2.00400017585158E-16
     -6.31754764437500E-16  -4.31354746852342E-16  -3.82474716095646E-15   0.00000000000000E+00   0.00000000000000E+00
      0.00000000000000E+00   0.00000000000000E+00  -2.29802879338732E-05  -1.78271967124983E-24  -2.29802879338732E-05
      8.57951760700872E-16   6.52333333333333E-01   6.52333333333333E-01   0.00000000000000E+00   0.00000000000000E+00
      2.29802879343041E-05   4.51790953327666E-19   2.29802879343045E-05   1.42640259792719E-15   3.00000000000000E+00
      3.00000000000000E+00   0.00000000000000E+00   0.00000000000000E+00   0.00000000000000E+00   0.00000000000000E+00
      0.00000000000000E+00   1.54039280232839E-15
      2.42444444444444E-01
      0.00000000000000E+00   0.00000000000000E+00   0.00000000000000E+00   0.00000000000000E+00   1.73719911504873E-15
     -6.98967486088240E-16   1.03823162896049E-15  -3.87404412373981E-15   0.00000000000000E+00   0.00000000000000E+00
      0.00000000000000E+00   0.00000000000000E+00  -2.32815141796628E-05  -1.80609655338024E-24  -2.32815141796628E-05
      8.57946300299989E-16   7.27333333333333E-01   7.27333333333333E-01   0.00000000000000E+00   0.00000000000000E+00
      2.32815141786253E-05  -6.77313692066635E-19   2.32815141786246E-05   1.48769262765960E-15   3.00000000000000E+00
      3.00000000000000E+00   0.00000000000000E+00   0.00000000000000E+00   0.00000000000000E+00   0.00000000000000E+00
      0.00000000000000E+00   1.52840519578021E-15
      2.67444444444444E-01
      0.00000000000000E+00   0.00000000000000E+00   0.00000000000000E+00   0.00000000000000E+00   7.10920544366497E-19
     -7.39439348928821E-16  -7.38728428384454E-16  -3.92215882009473E-15   0.00000000000000E+00   0.00000000000000E+00
      0.00000000000000E+00   0.00000000000000E+00  -2.35637341802336E-05  -1.82870658081814E-24  -2.35637341802336E-05
      8.57941155067128E-16   8.02333333333333E-01   8.02333333333333E-01   0.00000000000000E+00   0.00000000000000E+00
      2.35637341809723E-05   2.29497112146404E-20   2.35637341809723E-05   1.54755630746498E-15   3.00000000000000E+00
      3.00000000000000E+00   0.00000000000000E+00   0.00000000000000E+00   0.00000000000000E+00   0.00000000000000E+00
      0.00000000000000E+00   1.51666135756262E-15
      2.92444444444444E-01
      0.00000000000000E+00   0.00000000000000E+00   0.00000000000000E+00   0.00000000000000E+00   2.97225295065454E-14
     -7.62980509375432E-16   2.89595489971699E-14  -3.96904189480856E-15   0.00000000000000E+00   0.00000000000000E+00
      0.00000000000000E+00   0.00000000000000E+00  -2.38325509661884E-05  -1.84901138651067E-24  -2.38325509661884E-05
      8.57936227421059E-16   8.77333333333333E-01   8.77333333333333E-01   0.00000000000000E+00   0.00000000000000E+00
      2.38325509372293E-05  -4.62861670049390E-19   2.38325509372288E-05   1.60601977015482E-15   3.00000000000000E+00
      3.00000000000000E+00   0.00000000000000E+00   0.00000000000000E+00   0.00000000000000E+00   0.00000000000000E+00
      0.00000000000000E+00   1.50508589723268E-15
      3.17444444444444E-01
      0.00000000000000E+00   0.00000000000000E+00   0.00000000000000E+00   0.00000000000000E+00   8.61850120969176E-19
     -7.78254577983350E-16  -7.77392727862381E-16  -4.01497103990564E-15   0.00000000000000E+00   0.00000000000000E+00
      0.00000000000000E+00   0.00000000000000E+00  -2.40910111210196E-05  -1.86964286021259E-24  -2.40910111210196E-05
      8.57931464669923E-16   9.52333333333333E-01   9.52333333333333E-01   0.00000000000000E+00   0.00000000000000E+00
      2.40910111217969E-05   2.66321248796683E-20   2.40910111217970E-05   1.66339752158487E-15   3.00000000000000E+00
      3.00000000000000E+00   0.00000000000000E+00   0.00000000000000E+00   0.00000000000000E+00   0.00000000000000E+00
      0.00000000000000E+00   1.49364205365084E-15
      3.42444444444444E-01
      0.00000000000000E+00   0.00000000000000E+00   0.00000000000000E+00   0.00000000000000E+00  -2.52961671586902E-18
     -7.89361828279433E-16  -7.91891444995302E-16  -4.06032838985049E-15   0.00000000000000E+00   0.00000000000000E+00
      0.00000000000000E+00   0.00000000000000E+00  -2.43410748796351E-05  -1.88836015162657E-24  -2.43410748796351E-05
      8.57926833072294E-16   1.02733333333333E+00   1.02733333333333E+00   0.00000000000000E+00   0.00000000000000E+00
      2.43410748804270E-05   3.59624874682820E-20   2.43410748804270E-05   1.72009451437560E-15   3.00000000000000E+00
      3.00000000000000E+00   0.00000000000000E+00   0.00000000000000E+00   0.00000000000000E+00   0.00000000000000E+00
      0.00000000000000E+00   1.48230704240258E-15
      3.67444444444445E-01
      0.00000000000000E+00   0.00000000000000E+00   0.00000000000000E+00   0.00000000000000E+00   4.06818233701337E-14
     -7.99610362888649E-16   3.98822130072450E-14  -4.10543322636687E-15   0.00000000000000E+00   0.00000000000000E+00
      0.00000000000000E+00   0.00000000000000E+00  -2.45840438567993E-05  -1.90479857146479E-24  -2.45840438567993E-05
      8.57922310418044E-16   1.10233333333333E+00   1.10233333333333E+00   0.00000000000000E+00   0.00000000000000E+00
      2.45840438169174E-05  -2.46789707334697E-19   2.45840438169171E-05   1.77644324949910E-15   3.00000000000000E+00
      3.00000000000000E+00   0.00000000000000E+00   0.00000000000000E+00   0.00000000000000E+00   0.00000000000000E+00
      0.00000000000000E+00   1.47106766644973E-15
      3.92444444444445E-01
      0.00000000000000E+00   0.00000000000000E+00   0.00000000000000E+00   0.00000000000000E+00   7.83154970197382E-19
     -8.10272537624443E-16  -8.09489382654246E-16  -4.15049596258208E-15   0.00000000000000E+00   0.00000000000000E+00
      0.00000000000000E+00   0.00000000000000E+00  -2.48206675515703E-05  -1.92693180438208E-24  -2.48206675515703E-05
      8.57917884355130E-16   1.17733333333333E+00   1.17733333333333E+00   0.00000000000000E+00   0.00000000000000E+00
      2.48206675523798E-05   2.29681732517060E-20   2.48206675523798E-05   1.83265843995379E-15   3.00000000000000E+00
      3.00000000000000E+00   0.00000000000000E+00   0.00000000000000E+00   0.00000000000000E+00   0.00000000000000E+00
      0.00000000000000E+00   1.45991963827315E-15
      4.17444444444445E-01
      0.00000000000000E+00   0.00000000000000E+00   0.00000000000000E+00   0.00000000000000E+00   2.49914189264849E-13
     -8.18553228946762E-16   2.49095636035903E-13  -4.19564025000715E-15   0.00000000000000E+00   0.00000000000000E+00
      0.00000000000000E+00   0.00000000000000E+00  -2.50515271423224E-05  -1.94257423485816E-24  -2.50515271423224E-05
      8.57913545425699E-16   1.25233333333333E+00   1.25233333333333E+00   0.00000000000000E+00   0.00000000000000E+00
      2.50515268932275E-05  -7.09643006274134E-19   2.50515268932268E-05   1.88886531606632E-15   3.00000000000000E+00
      3.00000000000000E+00   0.00000000000000E+00   0.00000000000000E+00   0.00000000000000E+00   0.00000000000000E+00
      0.00000000000000E+00   1.44886138851512E-15
      4.42444444444445E-01
      0.00000000000000E+00   0.00000000000000E+00   0.00000000000000E+00   0.00000000000000E+00  -1.25466878079879E-19
     -8.27170554794971E-16  -8.27296021673051E-16  -4.24092104111197E-15   0.00000000000000E+00   0.00000000000000E+00
      0.00000000000000E+00   0.00000000000000E+00  -2.52771123775198E-05  -1.96054902516503E-24  -2.52771123775198E-05
      8.57909285690714E-16   1.32733333333333E+00   1.32733333333333E+00   0.00000000000000E+00   0.00000000000000E+00
      2.52771123783470E-05   3.10743426791468E-20   2.52771123783471E-05   1.94512067594298E-15   3.00000000000000E+00
      3.00000000000000E+00   0.00000000000000E+00   0.00000000000000E+00   0.00000000000000E+00   0.00000000000000E+00
      0.00000000000000E+00   1.43789107947828E-15
      4.67444444444445E-01
      0.00000000000000E+00   0.00000000000000E+00   0.00000000000000E+00   0.00000000000000E+00   5.12375579563765E-10
     -8.35138356217800E-16   5.12374744425409E-10  -4.28632204359897E-15   0.00000000000000E+00   0.00000000000000E+00
      0.00000000000000E+00   0.00000000000000E+00  -2.54979745102452E-05  -1.97807568245444E-24  -2.54979745102452E-05
      8.57905095864830E-16   1.40233333333333E+00   1.40233333333333E+00   0.00000000000000E+00   0.00000000000000E+00
      2.54974621355014E-05  -6.33667023931516E-19   2.54974621355008E-05   2.00141648732661E-15   3.00000000000000E+00
      3.00000000000000E+00   0.00000000000000E+00   0.00000000000000E+00   0.00000000000000E+00   0.00000000000000E+00
      0.00000000000000E+00   1.42700046040753E-15
      4.92444444444445E-01
      0.00000000000000E+00   0.00000000000000E+00   0.00000000000000E+00   0.00000000000000E+00   2.32216601199469E-18
     -8.46627129416113E-16  -8.44304963404118E-16  -4.33178123869323E-15   0.00000000000000E+00   0.00000000000000E+00
      0.00000000000000E+00   0.00000000000000E+00  -2.57146924766923E-05  -1.99492261706553E-24  -2.57146924766923E-05
      8.57900965952739E-16   1.47733333333333E+00   1.47733333333333E+00   0.00000000000000E+00   0.00000000000000E+00
      2.57146924775366E-05   5.51872043478626E-20   2.57146924775367E-05   2.05770320753489E-15   3.00000000000000E+00
      3.00000000000000E+00   0.00000000000000E+00   0.00000000000000E+00   0.00000000000000E+00   0.00000000000000E+00
      0.00000000000000E+00   1.41617706520559E-15
      5.17444444444445E-01
      0.00000000000000E+00   0.00000000000000E+00   0.00000000000000E+00   0.00000000000000E+00   5.35821311791259E-16
     -8.58947105873023E-16  -3.23125794081764E-16  -4.37722131935605E-15   0.00000000000000E+00   0.00000000000000E+00
      0.00000000000000E+00   0.00000000000000E+00  -2.59277674476118E-05  -2.01213673153258E-24  -2.59277674476118E-05
      8.57896887233677E-16   1.55233333333333E+00   1.55233333333333E+00   0.00000000000000E+00   0.00000000000000E+00
      2.59277674479344E-05   4.46567244565967E-19   2.59277674479349E-05   2.11391547387310E-15   3.00000000000000E+00
      3.00000000000000E+00   0.00000000000000E+00   0.00000000000000E+00   0.00000000000000E+00   0.00000000000000E+00
      0.00000000000000E+00   1.40540895824927E-15
      5.42444444444445E-01
      0.00000000000000E+00   0.00000000000000E+00   0.00000000000000E+00   0.00000000000000E+00   1.24103960057162E-14
     -8.70783100295713E-16   1.15396129054205E-14  -4.42256746781776E-15   0.00000000000000E+00   0.00000000000000E+00
      0.00000000000000E+00   0.00000000000000E+00  -2.61376154351550E-05  -2.02725884210647E-24  -2.61376154351550E-05
      8.57892852467848E-16   1.62733333333333E+00   1.62733333333333E+00   0.00000000000000E+00   0.00000000000000E+00
      2.61376154236146E-05   7.92016827461501E-19   2.61376154236154E-05   2.16998857617419E-15   3.00000000000000E+00
      3.00000000000000E+00   0.00000000000000E+00   0.00000000000000E+00   0.00000000000000E+00   0.00000000000000E+00
      0.00000000000000E+00   1.39468603917573E-15
      5.67444444444445E-01
      0.00000000000000E+00   0.00000000000000E+00   0.00000000000000E+00   0.00000000000000E+00   2.68773284834399E-14
     -8.82881868367817E-16   2.59944466150720E-14  -4.46776542625916E-15   0.00000000000000E+00   0.00000000000000E+00
      0.00000000000000E+00   0.00000000000000E+00  -2.63445782070050E-05  -2.04298989282355E-24  -2.63445782070050E-05
      8.57888855709898E-16   1.70233333333333E+00   1.70233333333333E+00   0.00000000000000E+00   0.00000000000000E+00
      2.63445781810105E-05   6.52523253550353E-20   2.63445781810105E-05   2.22587587880096E-15   3.00000000000000E+00
      3.00000000000000E+00   0.00000000000000E+00   0.00000000000000E+00   0.00000000000000E+00   0.00000000000000E+00
      0.00000000000000E+00   1.38400069174829E-15
      5.92444444444445E-01
      0.00000000000000E+00   0.00000000000000E+00   0.00000000000000E+00   0.00000000000000E+00   9.29625854256547E-16
     -9.02518489594401E-16   2.71073646621458E-17  -4.51277131429762E-15   0.00000000000000E+00   0.00000000000000E+00
      0.00000000000000E+00   0.00000000000000E+00  -2.65489402004243E-05  -2.05971894628881E-24  -2.65489402004243E-05
      8.57884892016061E-16   1.77733333333333E+00   1.77733333333333E+00   0.00000000000000E+00   0.00000000000000E+00
      2.65489402003972E-05   3.50733003293150E-20   2.65489402003972E-05   2.28153969858545E-15   3.00000000000000E+00
      3.00000000000000E+00   0.00000000000000E+00   0.00000000000000E+00   0.00000000000000E+00   0.00000000000000E+00
      0.00000000000000E+00   1.37334672369610E-15
      6.17444444444445E-01
      0.00000000000000E+00   0.00000000000000E+00   0.00000000000000E+00   0.00000000000000E+00   2.37767878697007E-16
     -9.36656780243864E-16  -6.98888901546858E-16  -4.55754354374885E-15   0.00000000000000E+00   0.00000000000000E+00
      0.00000000000000E+00   0.00000000000000E+00  -2.67509386960086E-05  -2.07606739874759E-24  -2.67509386960086E-05
      8.57880957270696E-16   1.85233333333333E+00   1.85233333333333E+00   0.00000000000000E+00   0.00000000000000E+00
      2.67509386967073E-05   1.30928823238463E-19   2.67509386967075E-05   2.33694371915582E-15   3.00000000000000E+00
      3.00000000000000E+00   0.00000000000000E+00   0.00000000000000E+00   0.00000000000000E+00   0.00000000000000E+00
      0.00000000000000E+00   1.36271886732233E-15
      6.42444444444445E-01
      0.00000000000000E+00   0.00000000000000E+00   0.00000000000000E+00   0.00000000000000E+00   8.07283550371255E-18
     -9.87629180535768E-16  -9.79556345032056E-16  -4.60205009044959E-15   0.00000000000000E+00   0.00000000000000E+00
      0.00000000000000E+00   0.00000000000000E+00  -2.69507798991440E-05  -2.08912737680205E-24  -2.69507798991440E-05
      8.57877047891618E-16   1.92733333333333E+00   1.92733333333333E+00   0.00000000000000E+00   0.00000000000000E+00
      2.69507799001233E-05   2.46130655875843E-19   2.69507799001235E-05   2.39205966545126E-15   3.00000000000000E+00
      3.00000000000000E+00   0.00000000000000E+00   0.00000000000000E+00   0.00000000000000E+00   0.00000000000000E+00
      0.00000000000000E+00   1.35211337710671E-15
      6.67444444444445E-01
      0.00000000000000E+00   0.00000000000000E+00   0.00000000000000E+00   0.00000000000000E+00   1.49068961049426E-18
     -1.04270004296006E-15  -1.04120935334957E-15  -4.64626114221830E-15   0.00000000000000E+00   0.00000000000000E+00
      0.00000000000000E+00   0.00000000000000E+00  -2.71486534082356E-05  -2.10734507588281E-24  -2.71486534082356E-05
      8.57873160558905E-16   2.00233333333333E+00   2.00233333333333E+00   0.00000000000000E+00   0.00000000000000E+00
      2.71486534092768E-05   4.38900217005288E-20   2.71486534092768E-05   2.44686036024786E-15   3.00000000000000E+00
      3.00000000000000E+00   0.00000000000000E+00   0.00000000000000E+00   0.00000000000000E+00   0.00000000000000E+00
      0.00000000000000E+00   1.34152762141154E-15
      6.92444444444445E-01
      0.00000000000000E+00   0.00000000000000E+00   0.00000000000000E+00   0.00000000000000E+00   1.73328842252395E-18
     -1.08561535178046E-15  -1.08388206335794E-15  -4.69014049917351E-15   0.00000000000000E+00   0.00000000000000E+00
      0.00000000000000E+00   0.00000000000000E+00  -2.73447365429850E-05  -2.12049652016188E-24  -2.73447365429850E-05
      8.57869292136667E-16   2.07733333333333E+00   2.07733333333333E+00   0.00000000000000E+00   0.00000000000000E+00
      2.73447365440689E-05   2.30562147379569E-20   2.73447365440689E-05   2.50131154139983E-15   3.00000000000000E+00
      3.00000000000000E+00   0.00000000000000E+00   0.00000000000000E+00   0.00000000000000E+00   0.00000000000000E+00
      0.00000000000000E+00   1.33095966563701E-15
      7.17444444444445E-01
      0.00000000000000E+00   0.00000000000000E+00   0.00000000000000E+00   0.00000000000000E+00   1.44196878613325E-18
     -1.11379368813582E-15  -1.11235171934969E-15  -4.73364272707266E-15   0.00000000000000E+00   0.00000000000000E+00
      0.00000000000000E+00   0.00000000000000E+00  -2.75391886073089E-05  -2.13608349253285E-24  -2.75391886073089E-05
      8.57865439792279E-16   2.15233333333333E+00   2.15233333333333E+00   0.00000000000000E+00   0.00000000000000E+00
      2.75391886084212E-05   6.13881235421921E-20   2.75391886084213E-05   2.55536885115443E-15   3.00000000000000E+00
      3.00000000000000E+00   0.00000000000000E+00   0.00000000000000E+00   0.00000000000000E+00   0.00000000000000E+00
      0.00000000000000E+00   1.32040843612594E-15
      7.42444444444445E-01
      0.00000000000000E+00   0.00000000000000E+00   0.00000000000000E+00   0.00000000000000E+00   1.46625728228243E-18
     -1.13409278131695E-15  -1.13262652403467E-15  -4.77671257586509E-15   0.00000000000000E+00   0.00000000000000E+00
      0.00000000000000E+00   0.00000000000000E+00  -2.77321509741304E-05  -2.15226698466859E-24  -2.77321509741304E-05
      8.57861601002477E-16   2.22733333333333E+00   2.22733333333333E+00   0.00000000000000E+00   0.00000000000000E+00
      2.77321509752626E-05   4.41768765876360E-19   2.77321509752631E-05   2.60897773981312E-15   3.00000000000000E+00
      3.00000000000000E+00   0.00000000000000E+00   0.00000000000000E+00   0.00000000000000E+00   0.00000000000000E+00
      0.00000000000000E+00   1.30987323504949E-15
      7.67444444444445E-01
      0.00000000000000E+00   0.00000000000000E+00   0.00000000000000E+00   0.00000000000000E+00   2.70463096334953E-18
     -1.14961253934207E-15  -1.14690790837872E-15  -4.81927826242506E-15   0.00000000000000E+00   0.00000000000000E+00
      0.00000000000000E+00   0.00000000000000E+00  -2.79237439339856E-05  -2.16574389516679E-24  -2.79237439339856E-05
      8.57857773623963E-16   2.30233333333333E+00   2.30233333333333E+00   0.00000000000000E+00   0.00000000000000E+00
      2.79237439351325E-05   7.68069107206464E-20   2.79237439351325E-05   2.66206661860160E-15   3.00000000000000E+00
      3.00000000000000E+00   0.00000000000000E+00   0.00000000000000E+00   0.00000000000000E+00   0.00000000000000E+00
      0.00000000000000E+00   1.29935387019950E-15
      7.92444444444445E-01
      0.00000000000000E+00   0.00000000000000E+00   0.00000000000000E+00   0.00000000000000E+00   1.73408355661010E-19
     -1.16231183581260E-15  -1.16213842745694E-15  -4.86124827072325E-15   0.00000000000000E+00   0.00000000000000E+00
      0.00000000000000E+00   0.00000000000000E+00  -2.81140734959866E-05  -2.17927853500009E-24  -2.81140734959866E-05
      8.57853955765550E-16   2.37733333333333E+00   2.37733333333333E+00   0.00000000000000E+00   0.00000000000000E+00
      2.81140734971487E-05   4.56202495563546E-20   2.81140734971488E-05   2.71454416979660E-15   3.00000000000000E+00
      3.00000000000000E+00   0.00000000000000E+00   0.00000000000000E+00   0.00000000000000E+00   0.00000000000000E+00
      0.00000000000000E+00   1.28885014516110E-15
      8.17444444444445E-01
      0.00000000000000E+00   0.00000000000000E+00   0.00000000000000E+00   0.00000000000000E+00  -5.17247064219206E-18
     -1.17277539669444E-15  -1.17794786733664E-15  -4.90252113450210E-15   0.00000000000000E+00   0.00000000000000E+00
      0.00000000000000E+00   0.00000000000000E+00  -2.83032327263372E-05  -2.19459487054008E-24  -2.83032327263372E-05
      8.57850145766857E-16   2.45233333333333E+00   2.45233333333333E+00   0.00000000000000E+00   0.00000000000000E+00
      2.83032327275152E-05   2.30561238547515E-20   2.83032327275152E-05   2.76630916730121E-15   3.00000000000000E+00
      3.00000000000000E+00   0.00000000000000E+00   0.00000000000000E+00   0.00000000000000E+00   0.00000000000000E+00
      0.00000000000000E+00   1.27836182143403E-15
      8.42444444444445E-01
      0.00000000000000E+00   0.00000000000000E+00   0.00000000000000E+00   0.00000000000000E+00   9.43372412950958E-15
     -1.18194723419464E-15   8.25177689531493E-15  -4.94301479143573E-15   0.00000000000000E+00   0.00000000000000E+00
      0.00000000000000E+00   0.00000000000000E+00  -2.84913047425883E-05  -2.21115168844949E-24  -2.84913047425883E-05
      8.57846342142695E-16   2.52733333333333E+00   2.52733333333333E+00   0.00000000000000E+00   0.00000000000000E+00
      2.84913047343364E-05   5.04414425847046E-20   2.84913047343365E-05   2.81727998658833E-15   3.00000000000000E+00
      3.00000000000000E+00   0.00000000000000E+00   0.00000000000000E+00   0.00000000000000E+00   0.00000000000000E+00
      0.00000000000000E+00   1.26788846270468E-15
      8.67444444444445E-01
      0.00000000000000E+00   0.00000000000000E+00   0.00000000000000E+00   0.00000000000000E+00   4.00044677041109E-15