DF-ISE text

Info {
  version   = 1.0
  type      = xyplot
  datasets  = [
    "time"
    "substrate OuterVoltage" "substrate InnerVoltage" "substrate QuasiFermiPotential" "substrate DisplacementCurrent" "substrate eCurrent"
    "substrate hCurrent" "substrate TotalCurrent" "substrate Charge" "source OuterVoltage" "source InnerVoltage"
    "source QuasiFermiPotential" "source DisplacementCurrent" "source eCurrent" "source hCurrent" "source TotalCurrent"
    "source Charge" "drain OuterVoltage" "drain InnerVoltage" "drain QuasiFermiPotential" "drain DisplacementCurrent"
    "drain eCurrent" "drain hCurrent" "drain TotalCurrent" "drain Charge" "gate OuterVoltage"
    "gate InnerVoltage" "gate QuasiFermiPotential" "gate DisplacementCurrent" "gate eCurrent" "gate hCurrent"
    "gate TotalCurrent" "gate Charge" ]
  functions = [
    Time
    OuterVoltage InnerVoltage QuasiFermiPotential DisplacementCurrent eCurrent
    hCurrent TotalCurrent Charge OuterVoltage InnerVoltage
    QuasiFermiPotential DisplacementCurrent eCurrent hCurrent TotalCurrent
    Charge OuterVoltage InnerVoltage QuasiFermiPotential DisplacementCurrent
    eCurrent hCurrent TotalCurrent Charge OuterVoltage
    InnerVoltage QuasiFermiPotential DisplacementCurrent eCurrent hCurrent
    TotalCurrent Charge ]
}

Data {
      0.00000000000000E+00
      0.00000000000000E+00   0.00000000000000E+00   0.00000000000000E+00   0.00000000000000E+00  -8.06721517013331E-19
      2.91261978816943E-28  -8.06721516722069E-19  -1.46579842655096E-15   0.00000000000000E+00   0.00000000000000E+00
      0.00000000000000E+00   0.00000000000000E+00   4.59165974335695E-19  -1.65034684273466E-28   4.59165974170660E-19
      6.44773578290249E-16   0.00000000000000E+00   0.00000000000000E+00   0.00000000000000E+00   0.00000000000000E+00
      3.47555542677449E-19  -1.26039009031637E-28   3.47555542551410E-19   6.44773578290249E-16   1.00000000000000E+00
      1.00000000000000E+00   0.00000000000000E+00   0.00000000000000E+00   0.00000000000000E+00   0.00000000000000E+00
      0.00000000000000E+00   1.76251269970457E-16
      1.00000000000000E-02
      0.00000000000000E+00   0.00000000000000E+00   0.00000000000000E+00   0.00000000000000E+00   2.15973636368678E-16
     -1.65491888458275E-17   1.99424447522851E-16  -1.47939275888889E-15   0.00000000000000E+00   0.00000000000000E+00
      0.00000000000000E+00   0.00000000000000E+00  -1.17780668872050E-07  -6.68922169158646E-27  -1.17780668872050E-07
      6.42889092439645E-16   3.00000000000000E-02   3.00000000000000E-02   0.00000000000000E+00   0.00000000000000E+00
      1.17780668672620E-07   6.13176418636102E-21   1.17780668672626E-07   6.64934470925878E-16   1.00000000000000E+00
      1.00000000000000E+00   0.00000000000000E+00   0.00000000000000E+00   0.00000000000000E+00   0.00000000000000E+00
      0.00000000000000E+00   1.71569195523367E-16
      2.33333333333333E-02
      0.00000000000000E+00   0.00000000000000E+00   0.00000000000000E+00   0.00000000000000E+00  -2.99381299513837E-17
     -3.05869530309293E-17  -6.05250829823130E-17  -1.49744071241496E-15   0.00000000000000E+00   0.00000000000000E+00
      0.00000000000000E+00   0.00000000000000E+00  -2.01101936946939E-07  -1.19326679320692E-26  -2.01101936946939E-07
      6.40380836261633E-16   7.00000000000000E-02   7.00000000000000E-02   0.00000000000000E+00   0.00000000000000E+00
      2.01101937007453E-07   9.98524915710774E-21   2.01101937007463E-07   6.91706713994642E-16   1.00000000000000E+00
      1.00000000000000E+00   0.00000000000000E+00   0.00000000000000E+00   0.00000000000000E+00   0.00000000000000E+00
      0.00000000000000E+00   1.65353162158687E-16
      4.15555555555556E-02
      0.00000000000000E+00   0.00000000000000E+00   0.00000000000000E+00   0.00000000000000E+00   4.09506831868011E-20
     -4.51987137940239E-17  -4.51577631108371E-17  -1.52196046095176E-15   0.00000000000000E+00   0.00000000000000E+00
      0.00000000000000E+00   0.00000000000000E+00  -3.70147819232229E-07  -2.21461363514495E-26  -3.70147819232229E-07
      6.36956710186674E-16   1.24666666666667E-01   1.24666666666667E-01   0.00000000000000E+00   0.00000000000000E+00
      3.70147819277375E-07   1.22525086820926E-20   3.70147819277387E-07   7.28103003901818E-16   1.00000000000000E+00
      1.00000000000000E+00   0.00000000000000E+00   0.00000000000000E+00   0.00000000000000E+00   0.00000000000000E+00
      0.00000000000000E+00   1.56900746863266E-16
      6.65555555555556E-02
      0.00000000000000E+00   0.00000000000000E+00   0.00000000000000E+00   0.00000000000000E+00  -2.14555350112307E-19
     -6.50154353287631E-17  -6.52299906788755E-17  -1.55534333471314E-15   0.00000000000000E+00   0.00000000000000E+00
      0.00000000000000E+00   0.00000000000000E+00  -8.63366819134173E-07  -5.01677335803310E-26  -8.63366819134173E-07
      6.32267808822173E-16   1.99666666666667E-01   1.99666666666667E-01   0.00000000000000E+00   0.00000000000000E+00
      8.63366819199396E-07   6.00295220928169E-21   8.63366819199402E-07   7.77695582923977E-16   1.00000000000000E+00
      1.00000000000000E+00   0.00000000000000E+00   0.00000000000000E+00   0.00000000000000E+00   0.00000000000000E+00
      0.00000000000000E+00   1.45379942966989E-16
      9.15555555555556E-02
      0.00000000000000E+00   0.00000000000000E+00   0.00000000000000E+00   0.00000000000000E+00  -3.07571171504302E-20
     -8.82218764439256E-17  -8.82526335610760E-17  -1.58846750880781E-15   0.00000000000000E+00   0.00000000000000E+00
      0.00000000000000E+00   0.00000000000000E+00  -1.76007607648948E-06  -1.01909800999861E-25  -1.76007607648948E-06
      6.27601861281961E-16   2.74666666666667E-01   2.74666666666667E-01   0.00000000000000E+00   0.00000000000000E+00
      1.76007607657772E-06   1.19828787367266E-20   1.76007607657773E-06   8.26915624268904E-16   1.00000000000000E+00
      1.00000000000000E+00   0.00000000000000E+00   0.00000000000000E+00   0.00000000000000E+00   0.00000000000000E+00
      0.00000000000000E+00   1.33950023256942E-16
      1.16555555555556E-01
      0.00000000000000E+00   0.00000000000000E+00   0.00000000000000E+00   0.00000000000000E+00   1.77741467072509E-14
     -1.13344141795613E-16   1.76608025654553E-14  -1.62137459842279E-15   0.00000000000000E+00   0.00000000000000E+00
      0.00000000000000E+00   0.00000000000000E+00  -3.24838844414944E-06  -1.87483184889144E-25  -3.24838844414944E-06
      6.22975058661409E-16   3.49666666666667E-01   3.49666666666667E-01   0.00000000000000E+00   0.00000000000000E+00
      3.24838842648862E-06   1.19806475431786E-20   3.24838842648863E-06   8.75779124187558E-16   1.00000000000000E+00
      1.00000000000000E+00   0.00000000000000E+00   0.00000000000000E+00   0.00000000000000E+00   0.00000000000000E+00
      0.00000000000000E+00   1.22620415573825E-16
      1.41555555555556E-01
      0.00000000000000E+00   0.00000000000000E+00   0.00000000000000E+00   0.00000000000000E+00   2.29626746422045E-18
     -1.40726150087325E-16  -1.38429882623105E-16  -1.65408197545447E-15   0.00000000000000E+00   0.00000000000000E+00
      0.00000000000000E+00   0.00000000000000E+00  -5.50032575393624E-06  -3.17746263122898E-25  -5.50032575393624E-06
      6.18404481062638E-16   4.24666666666667E-01   4.24666666666667E-01   0.00000000000000E+00   0.00000000000000E+00
      5.50032575407465E-06   1.19795136670454E-20   5.50032575407466E-06   9.24275812843311E-16   1.00000000000000E+00
      1.00000000000000E+00   0.00000000000000E+00   0.00000000000000E+00   0.00000000000000E+00   0.00000000000000E+00
      0.00000000000000E+00   1.11401681548523E-16
      1.66555555555556E-01
      0.00000000000000E+00   0.00000000000000E+00   0.00000000000000E+00   0.00000000000000E+00   1.59618201142314E-18
     -1.72534491591434E-16  -1.70938309580011E-16  -1.68656452885512E-15   0.00000000000000E+00   0.00000000000000E+00
      0.00000000000000E+00   0.00000000000000E+00  -8.60924787499838E-06  -4.97160911235941E-25  -8.60924787499838E-06
      6.13903283459749E-16   4.99666666666667E-01   4.99666666666667E-01   0.00000000000000E+00   0.00000000000000E+00
      8.60924787516931E-06   1.19816924415890E-20   8.60924787516932E-06   9.72362599538385E-16   1.00000000000000E+00
      1.00000000000000E+00   0.00000000000000E+00   0.00000000000000E+00   0.00000000000000E+00   0.00000000000000E+00
      0.00000000000000E+00   1.00298645856988E-16
      1.91555555555556E-01
      0.00000000000000E+00   0.00000000000000E+00   0.00000000000000E+00   0.00000000000000E+00   7.44127279540049E-14
     -2.10346475577031E-16   7.42023814784279E-14  -1.71874962325965E-15   0.00000000000000E+00   0.00000000000000E+00
      0.00000000000000E+00   0.00000000000000E+00  -1.25932055640068E-05  -7.28174235207989E-25  -1.25932055640068E-05
      6.09479977819781E-16   5.74666666666667E-01   5.74666666666667E-01   0.00000000000000E+00   0.00000000000000E+00
      1.25932054898044E-05   1.19850175743215E-20   1.25932054898044E-05   1.01996039600691E-15   1.00000000000000E+00
      1.00000000000000E+00   0.00000000000000E+00   0.00000000000000E+00   0.00000000000000E+00   0.00000000000000E+00
      0.00000000000000E+00   8.93092494329521E-17
      2.16555555555556E-01
      0.00000000000000E+00   0.00000000000000E+00   0.00000000000000E+00   0.00000000000000E+00   9.29568315125932E-15
     -2.47045573861475E-16   9.04863757739785E-15  -1.75052949974041E-15   0.00000000000000E+00   0.00000000000000E+00
      0.00000000000000E+00   0.00000000000000E+00  -1.74162099877720E-05  -1.01097291637337E-24  -1.74162099877720E-05
      6.05139142949099E-16   6.49666666666667E-01   6.49666666666667E-01   0.00000000000000E+00   0.00000000000000E+00
      1.74162099787234E-05   1.19894817036699E-20   1.74162099787234E-05   1.06696413411336E-15   1.00000000000000E+00
      1.00000000000000E+00   0.00000000000000E+00   0.00000000000000E+00   0.00000000000000E+00   0.00000000000000E+00
      0.00000000000000E+00   7.84262226779552E-17
      2.41555555555556E-01
      0.00000000000000E+00   0.00000000000000E+00   0.00000000000000E+00   0.00000000000000E+00   3.31653526895043E-16
     -2.73303106331134E-16   5.83504205639081E-17  -1.78179120346196E-15   0.00000000000000E+00   0.00000000000000E+00
      0.00000000000000E+00   0.00000000000000E+00  -2.30158291657955E-05  -1.34387185995785E-24  -2.30158291657955E-05
      6.00882638080048E-16   7.24666666666667E-01   7.24666666666667E-01   0.00000000000000E+00   0.00000000000000E+00
      2.30158291657371E-05   1.19947229716558E-20   2.30158291657371E-05   1.11326983960555E-15   1.00000000000000E+00
      1.00000000000000E+00   0.00000000000000E+00   0.00000000000000E+00   0.00000000000000E+00   0.00000000000000E+00
      0.00000000000000E+00   6.76387257763617E-17
      2.66555555555556E-01
      0.00000000000000E+00   0.00000000000000E+00   0.00000000000000E+00   0.00000000000000E+00   9.58085368067626E-18
     -2.89697531485205E-16  -2.80116677804529E-16  -1.81248188192417E-15   0.00000000000000E+00   0.00000000000000E+00
      0.00000000000000E+00   0.00000000000000E+00  -2.93241847454430E-05  -1.72837157527678E-24  -2.93241847454430E-05
      5.96710968073814E-16   7.99666666666667E-01   7.99666666666667E-01   0.00000000000000E+00   0.00000000000000E+00
      2.93241847457231E-05   1.20005329202935E-20   2.93241847457231E-05   1.15883577335173E-15   1.00000000000000E+00
      1.00000000000000E+00   0.00000000000000E+00   0.00000000000000E+00   0.00000000000000E+00   0.00000000000000E+00
      0.00000000000000E+00   5.69351404986219E-17
      2.91555555555556E-01
      0.00000000000000E+00   0.00000000000000E+00   0.00000000000000E+00   0.00000000000000E+00   5.89716593292697E-18
     -3.01740403692344E-16  -2.95843237759417E-16  -1.84264821574939E-15   0.00000000000000E+00   0.00000000000000E+00
      0.00000000000000E+00   0.00000000000000E+00  -3.62827539367197E-05  -2.16589663791149E-24  -3.62827539367197E-05
      5.92623349487438E-16   8.74666666666667E-01   8.74666666666667E-01   0.00000000000000E+00   0.00000000000000E+00
      3.62827539370156E-05   1.20067980392251E-20   3.62827539370156E-05   1.20372031777405E-15   1.00000000000000E+00
      1.00000000000000E+00   0.00000000000000E+00   0.00000000000000E+00   0.00000000000000E+00   0.00000000000000E+00
      0.00000000000000E+00   4.63045484879021E-17
      3.16555555555556E-01
      0.00000000000000E+00   0.00000000000000E+00   0.00000000000000E+00   0.00000000000000E+00  -9.08769949989736E-19
     -3.12995990509641E-16  -3.13904760459631E-16  -1.87240042936573E-15   0.00000000000000E+00   0.00000000000000E+00
      0.00000000000000E+00   0.00000000000000E+00  -4.38513186879044E-05  -2.65923815168632E-24  -4.38513186879044E-05
      5.88617506175534E-16   9.49666666666667E-01   9.49666666666667E-01   0.00000000000000E+00   0.00000000000000E+00
      4.38513186882183E-05   1.20134354579555E-20   4.38513186882183E-05   1.24804644384651E-15   1.00000000000000E+00
      1.00000000000000E+00   0.00000000000000E+00   0.00000000000000E+00   0.00000000000000E+00   0.00000000000000E+00
      0.00000000000000E+00   3.57364793436893E-17
      3.41555555555556E-01
      0.00000000000000E+00   0.00000000000000E+00   0.00000000000000E+00   0.00000000000000E+00  -2.37972404001821E-19
     -3.22359414395545E-16  -3.22597386799547E-16  -1.90185388178034E-15   0.00000000000000E+00   0.00000000000000E+00
      0.00000000000000E+00   0.00000000000000E+00  -5.20097485712703E-05  -3.21474068136535E-24  -5.20097485712703E-05
      5.84690021066056E-16   1.02466666666667E+00   1.02466666666667E+00   0.00000000000000E+00   0.00000000000000E+00
      5.20097485715929E-05   1.20204071294506E-20   5.20097485715929E-05   1.29194314903243E-15   1.00000000000000E+00
      1.00000000000000E+00   0.00000000000000E+00   0.00000000000000E+00   0.00000000000000E+00   0.00000000000000E+00
      0.00000000000000E+00   2.52207116818554E-17
      3.66555555555556E-01
      0.00000000000000E+00   0.00000000000000E+00   0.00000000000000E+00   0.00000000000000E+00   2.74289999566981E-18
     -3.28801281547455E-16  -3.26058381551786E-16  -1.93110081774251E-15   0.00000000000000E+00   0.00000000000000E+00
      0.00000000000000E+00   0.00000000000000E+00  -6.07516606177606E-05  -3.83785702034685E-24  -6.07516606177606E-05
      5.80837626014905E-16   1.09966666666667E+00   1.09966666666667E+00   0.00000000000000E+00   0.00000000000000E+00
      6.07516606180866E-05   1.20277232900898E-20   6.07516606180867E-05   1.33551487746905E-15   1.00000000000000E+00
      1.00000000000000E+00   0.00000000000000E+00   0.00000000000000E+00   0.00000000000000E+00   0.00000000000000E+00
      0.00000000000000E+00   1.47483142585551E-17
      3.91555555555556E-01
      0.00000000000000E+00   0.00000000000000E+00   0.00000000000000E+00   0.00000000000000E+00   2.88914303954670E-18
     -3.33988948124025E-16  -3.31099805084479E-16  -1.96020402289768E-15   0.00000000000000E+00   0.00000000000000E+00
      0.00000000000000E+00   0.00000000000000E+00  -7.00784347193172E-05  -4.53715339480237E-24  -7.00784347193172E-05
      5.77057728834191E-16   1.17466666666667E+00   1.17466666666667E+00   0.00000000000000E+00   0.00000000000000E+00
      7.00784347196483E-05   1.20353926046263E-20   7.00784347196483E-05   1.37883461718900E-15   1.00000000000000E+00
      1.00000000000000E+00   0.00000000000000E+00   0.00000000000000E+00   0.00000000000000E+00   0.00000000000000E+00
      0.00000000000000E+00   4.31167687448967E-18
      4.16555555555556E-01
      0.00000000000000E+00   0.00000000000000E+00   0.00000000000000E+00   0.00000000000000E+00   2.01962338851759E-18
     -3.40086202595426E-16  -3.38066579206908E-16  -1.98920407156361E-15   0.00000000000000E+00   0.00000000000000E+00
      0.00000000000000E+00   0.00000000000000E+00  -7.99935588783553E-05  -5.31476596557956E-24  -7.99935588783553E-05
      5.73348604897083E-16   1.24966666666667E+00   1.24966666666667E+00   0.00000000000000E+00   0.00000000000000E+00
      7.99935588786934E-05   1.20434318482809E-20   7.99935588786934E-05   1.42195090015142E-15   1.00000000000000E+00
      1.00000000000000E+00   0.00000000000000E+00   0.00000000000000E+00   0.00000000000000E+00   0.00000000000000E+00
      0.00000000000000E+00  -6.09543348488577E-18
      4.41555555555556E-01
      0.00000000000000E+00   0.00000000000000E+00   0.00000000000000E+00   0.00000000000000E+00   1.41825667953885E-18
     -3.47507909943260E-16  -3.46089653263721E-16  -2.01812885680068E-15   0.00000000000000E+00   0.00000000000000E+00
      0.00000000000000E+00   0.00000000000000E+00  -9.04964613487380E-05  -6.17672406184131E-24  -9.04964613487380E-05
      5.69709663426824E-16   1.32466666666667E+00   1.32466666666667E+00   0.00000000000000E+00   0.00000000000000E+00
      9.04964613490840E-05   1.20518588432514E-20   9.04964613490840E-05   1.46489670440283E-15   1.00000000000000E+00
      1.00000000000000E+00   0.00000000000000E+00   0.00000000000000E+00   0.00000000000000E+00   0.00000000000000E+00
      0.00000000000000E+00  -1.64775110289724E-17
      4.66555555555556E-01
      0.00000000000000E+00   0.00000000000000E+00   0.00000000000000E+00   0.00000000000000E+00  -1.03285519022957E-19
     -3.54641498515151E-16  -3.54744784034174E-16  -2.04699743779562E-15   0.00000000000000E+00   0.00000000000000E+00
      0.00000000000000E+00   0.00000000000000E+00  -1.01581018558654E-04  -7.12875790274430E-24  -1.01581018558654E-04
      5.66141082390687E-16   1.39966666666667E+00   1.39966666666667E+00   0.00000000000000E+00   0.00000000000000E+00
      1.01581018559009E-04   1.20606759330947E-20   1.01581018559009E-04   1.50769420524855E-15   1.00000000000000E+00
      1.00000000000000E+00   0.00000000000000E+00   0.00000000000000E+00   0.00000000000000E+00   0.00000000000000E+00
      0.00000000000000E+00  -2.68378498436143E-17
      4.91555555555556E-01
      0.00000000000000E+00   0.00000000000000E+00   0.00000000000000E+00   0.00000000000000E+00  -8.59660013042611E-19
     -3.60542217505944E-16  -3.61401877518987E-16  -2.07582306302666E-15   0.00000000000000E+00   0.00000000000000E+00
      0.00000000000000E+00   0.00000000000000E+00  -1.13235973356240E-04  -8.17888811338866E-24  -1.13235973356240E-04
      5.62643386319429E-16   1.47466666666667E+00   1.47466666666667E+00   0.00000000000000E+00   0.00000000000000E+00
      1.13235973356601E-04   1.20698210323446E-20   1.13235973356601E-04   1.55035863583661E-15   1.00000000000000E+00
      1.00000000000000E+00   0.00000000000000E+00   0.00000000000000E+00   0.00000000000000E+00   0.00000000000000E+00
      0.00000000000000E+00  -3.71789591293728E-17
      5.16555555555556E-01
      0.00000000000000E+00   0.00000000000000E+00   0.00000000000000E+00   0.00000000000000E+00  -6.35664248800017E-19
     -3.65794225159419E-16  -3.66429889408219E-16  -2.10461470803340E-15   0.00000000000000E+00   0.00000000000000E+00
      0.00000000000000E+00   0.00000000000000E+00  -1.25446323812343E-04  -9.33119725469150E-24  -1.25446323812343E-04
      5.59217174631146E-16   1.54966666666667E+00   1.54966666666667E+00   0.00000000000000E+00   0.00000000000000E+00
      1.25446323812709E-04   1.20792894501905E-20   1.25446323812709E-04   1.59290038391230E-15   1.00000000000000E+00
      1.00000000000000E+00   0.00000000000000E+00   0.00000000000000E+00   0.00000000000000E+00   0.00000000000000E+00
      0.00000000000000E+00  -4.75028505100460E-17
      5.41555555555556E-01
      0.00000000000000E+00   0.00000000000000E+00   0.00000000000000E+00   0.00000000000000E+00  -2.24588108675333E-18
     -3.71309994639680E-16  -3.73555875726433E-16  -2.13337893649852E-15   0.00000000000000E+00   0.00000000000000E+00
      0.00000000000000E+00   0.00000000000000E+00  -1.38192303107271E-04  -1.05881066914337E-23  -1.38192303107271E-04
      5.55863239505708E-16   1.62466666666667E+00   1.62466666666667E+00   0.00000000000000E+00   0.00000000000000E+00
      1.38192303107644E-04   1.20890772641800E-20   1.38192303107644E-04   1.63532657394092E-15   1.00000000000000E+00
      1.00000000000000E+00   0.00000000000000E+00   0.00000000000000E+00   0.00000000000000E+00   0.00000000000000E+00
      0.00000000000000E+00  -5.78108769481041E-17
      5.66555555555556E-01
      0.00000000000000E+00   0.00000000000000E+00   0.00000000000000E+00   0.00000000000000E+00  -1.30966801262460E-18
     -3.78538517208724E-16  -3.79848185221349E-16  -2.16211888918462E-15   0.00000000000000E+00   0.00000000000000E+00
      0.00000000000000E+00   0.00000000000000E+00  -1.51453798614082E-04  -1.19478607943457E-23  -1.51453798614082E-04
      5.52582185222205E-16   1.69966666666667E+00   1.69966666666667E+00   0.00000000000000E+00   0.00000000000000E+00
      1.51453798614461E-04   1.20991834426827E-20   1.51453798614461E-04   1.67764095383273E-15   1.00000000000000E+00
      1.00000000000000E+00   0.00000000000000E+00   0.00000000000000E+00   0.00000000000000E+00   0.00000000000000E+00
      0.00000000000000E+00  -6.81042498703127E-17
      5.91555555555556E-01
      0.00000000000000E+00   0.00000000000000E+00   0.00000000000000E+00   0.00000000000000E+00  -2.50510218636233E-18
     -3.89396778592814E-16  -3.91901880779176E-16  -2.19083502883699E-15   0.00000000000000E+00   0.00000000000000E+00
      0.00000000000000E+00   0.00000000000000E+00  -1.65210523463957E-04  -1.34056223241777E-23  -1.65210523463957E-04
      5.49374475551864E-16   1.77466666666667E+00   1.77466666666667E+00   0.00000000000000E+00   0.00000000000000E+00
      1.65210523464349E-04   1.21096042545319E-20   1.65210523464349E-04   1.71984458066708E-15   1.00000000000000E+00
      1.00000000000000E+00   0.00000000000000E+00   0.00000000000000E+00   0.00000000000000E+00   0.00000000000000E+00
      0.00000000000000E+00  -7.83840273819508E-17
      6.16555555555556E-01
      0.00000000000000E+00   0.00000000000000E+00   0.00000000000000E+00   0.00000000000000E+00   1.23280869206037E-18
     -4.05447177765328E-16  -4.04214369073268E-16  -2.21952567814339E-15   0.00000000000000E+00   0.00000000000000E+00
      0.00000000000000E+00   0.00000000000000E+00  -1.79441736665376E-04  -1.49546274377483E-23  -1.79441736665376E-04
      5.46240305350320E-16   1.84966666666667E+00   1.84966666666667E+00   0.00000000000000E+00   0.00000000000000E+00
      1.79441736665780E-04   1.21203332805020E-20   1.79441736665780E-04   1.76193632198421E-15   1.00000000000000E+00
      1.00000000000000E+00   0.00000000000000E+00   0.00000000000000E+00   0.00000000000000E+00   0.00000000000000E+00
      0.00000000000000E+00  -8.86509491911306E-17
      6.41555555555556E-01
      0.00000000000000E+00   0.00000000000000E+00   0.00000000000000E+00   0.00000000000000E+00   1.53900889391962E-18
     -4.25620937593747E-16  -4.24081928699827E-16  -2.24818562802452E-15   0.00000000000000E+00   0.00000000000000E+00
      0.00000000000000E+00   0.00000000000000E+00  -1.94129589201752E-04  -1.65887589096217E-23  -1.94129589201752E-04
      5.43179351102187E-16   1.92466666666667E+00   1.92466666666667E+00   0.00000000000000E+00   0.00000000000000E+00
      1.94129589202176E-04   1.21313624494948E-20   1.94129589202176E-04   1.80391217211398E-15   1.00000000000000E+00
      1.00000000000000E+00   0.00000000000000E+00   0.00000000000000E+00   0.00000000000000E+00   0.00000000000000E+00
      0.00000000000000E+00  -9.89058951916536E-17
      6.66555555555556E-01
      0.00000000000000E+00   0.00000000000000E+00   0.00000000000000E+00   0.00000000000000E+00  -7.09677591021213E-14
     -4.45509525425203E-16  -7.14132686275465E-14  -2.27680689980359E-15   0.00000000000000E+00   0.00000000000000E+00
      0.00000000000000E+00   0.00000000000000E+00  -2.09256128017949E-04  -1.83020437425100E-23  -2.09256128017949E-04
      5.40190923283684E-16   1.99966666666667E+00   1.99966666666667E+00   0.00000000000000E+00   0.00000000000000E+00
      2.09256128089362E-04   1.21426622578672E-20   2.09256128089362E-04   1.84576547315885E-15   1.00000000000000E+00
      1.00000000000000E+00   0.00000000000000E+00   0.00000000000000E+00   0.00000000000000E+00   0.00000000000000E+00
      0.00000000000000E+00  -1.09149496638945E-16
      6.91555555555556E-01
      0.00000000000000E+00   0.00000000000000E+00   0.00000000000000E+00   0.00000000000000E+00  -6.14085567294722E-14
     -4.62008017719545E-16  -6.18705647471917E-14  -2.30537817710935E-15   0.00000000000000E+00   0.00000000000000E+00
      0.00000000000000E+00   0.00000000000000E+00  -2.24800633462637E-04  -2.00876204029465E-23  -2.24800633462637E-04
      5.37274071633682E-16   2.07466666666667E+00   2.07466666666667E+00   0.00000000000000E+00   0.00000000000000E+00
      2.24800633524507E-04   1.21542832963665E-20   2.24800633524507E-04   1.88748602090210E-15   1.00000000000000E+00
      1.00000000000000E+00   0.00000000000000E+00   0.00000000000000E+00   0.00000000000000E+00   0.00000000000000E+00
      0.00000000000000E+00  -1.19381915426433E-16
      7.16555555555556E-01
      0.00000000000000E+00   0.00000000000000E+00   0.00000000000000E+00   0.00000000000000E+00  -5.16342865702577E-14
     -4.74688824158788E-16  -5.21089753944165E-14  -2.33388088102796E-15   0.00000000000000E+00   0.00000000000000E+00
      0.00000000000000E+00   0.00000000000000E+00  -2.40750894280200E-04  -2.19443388421038E-23  -2.40750894280200E-04
      5.34426934542875E-16   2.14966666666667E+00   2.14966666666667E+00   0.00000000000000E+00   0.00000000000000E+00
      2.40750894332309E-04   1.21661471760437E-20   2.40750894332309E-04   1.92905793181813E-15   1.00000000000000E+00
      1.00000000000000E+00   0.00000000000000E+00   0.00000000000000E+00   0.00000000000000E+00   0.00000000000000E+00
      0.00000000000000E+00  -1.29603985333046E-16
      7.41555555555556E-01
      0.00000000000000E+00   0.00000000000000E+00   0.00000000000000E+00   0.00000000000000E+00  -4.31277946495810E-14
     -4.83740327835849E-16  -4.36115349774168E-14  -2.36229195501393E-15   0.00000000000000E+00   0.00000000000000E+00
      0.00000000000000E+00   0.00000000000000E+00  -2.57091107446374E-04  -2.38744100951346E-23  -2.57091107446374E-04
      5.31647603729659E-16   2.22466666666667E+00   2.22466666666667E+00   0.00000000000000E+00   0.00000000000000E+00
      2.57091107489985E-04   1.21779985682212E-20   2.57091107489985E-04   1.97046040378212E-15   1.00000000000000E+00
      1.00000000000000E+00   0.00000000000000E+00   0.00000000000000E+00   0.00000000000000E+00   0.00000000000000E+00
      0.00000000000000E+00  -1.39816052497849E-16
      7.66555555555556E-01
      0.00000000000000E+00   0.00000000000000E+00   0.00000000000000E+00   0.00000000000000E+00   3.98959963972086E-19
     -4.90196177387017E-16  -4.89797217423045E-16  -2.39058251215781E-15   0.00000000000000E+00   0.00000000000000E+00
      0.00000000000000E+00   0.00000000000000E+00  -2.73807284082869E-04  -2.58777676733404E-23  -2.73807284082869E-04
      5.28933846634993E-16   2.29966666666667E+00   2.29966666666667E+00   0.00000000000000E+00   0.00000000000000E+00
      2.73807284083359E-04   1.21906913897156E-20   2.73807284083359E-04   2.01166719211714E-15   1.00000000000000E+00
      1.00000000000000E+00   0.00000000000000E+00   0.00000000000000E+00   0.00000000000000E+00   0.00000000000000E+00
      0.00000000000000E+00  -1.50018526594323E-16
      7.91555555555556E-01
      0.00000000000000E+00   0.00000000000000E+00   0.00000000000000E+00   0.00000000000000E+00  -1.00454296505894E-18
     -4.95649401169684E-16  -4.96653944134743E-16  -2.41872055006643E-15   0.00000000000000E+00   0.00000000000000E+00
      0.00000000000000E+00   0.00000000000000E+00  -2.90887564062538E-04  -2.79547895328993E-23  -2.90887564062538E-04
      5.26283161043486E-16   2.37466666666667E+00   2.37466666666667E+00   0.00000000000000E+00   0.00000000000000E+00
      2.90887564063035E-04   1.22033315597873E-20   2.90887564063035E-04   2.05264931676425E-15   1.00000000000000E+00
      1.00000000000000E+00   0.00000000000000E+00   0.00000000000000E+00   0.00000000000000E+00   0.00000000000000E+00
      0.00000000000000E+00  -1.60211927741305E-16
      8.16555555555556E-01
      0.00000000000000E+00   0.00000000000000E+00   0.00000000000000E+00   0.00000000000000E+00   1.91176588146854E-18
     -5.01127127310453E-16  -4.99215361428985E-16  -2.44667888946355E-15   0.00000000000000E+00   0.00000000000000E+00
      0.00000000000000E+00   0.00000000000000E+00  -3.08318204591151E-04  -3.01052464611309E-23  -3.08318204591151E-04
      5.23693036442819E-16   2.44966666666667E+00   2.44966666666667E+00   0.00000000000000E+00   0.00000000000000E+00
      3.08318204591650E-04   1.22162056800704E-20   3.08318204591650E-04   2.09338246320708E-15   1.00000000000000E+00
      1.00000000000000E+00   0.00000000000000E+00   0.00000000000000E+00   0.00000000000000E+00   0.00000000000000E+00
      0.00000000000000E+00  -1.70396610186346E-16
      8.41555555555556E-01
      0.00000000000000E+00   0.00000000000000E+00   0.00000000000000E+00   0.00000000000000E+00   1.38892610671369E-18
     -5.06558929374016E-16  -5.05170003267302E-16  -2.47444439498234E-15   0.00000000000000E+00   0.00000000000000E+00
      0.00000000000000E+00   0.00000000000000E+00  -3.26086632004831E-04  -3.23334254729634E-23  -3.26086632004831E-04
      5.21160754802802E-16   2.52466666666667E+00   2.52466666666667E+00   0.00000000000000E+00   0.00000000000000E+00
      3.26086632005336E-04   1.22293028746215E-20   3.26086632005336E-04   2.13385661521838E-15   1.00000000000000E+00
      1.00000000000000E+00   0.00000000000000E+00   0.00000000000000E+00   0.00000000000000E+00   0.00000000000000E+00
      0.00000000000000E+00  -1.80572975038846E-16
      8.66555555555556E-01
      0.00000000000000E+00   0.00000000000000E+00   0.00000000000000E+00   0.00000000000000E+00   2.96710638376814E-19