DF-ISE text

Info {
  version   = 1.0
  type      = xyplot
  datasets  = [
    "time"
    "substrate OuterVoltage" "substrate InnerVoltage" "substrate QuasiFermiPotential" "substrate DisplacementCurrent" "substrate eCurrent"
    "substrate hCurrent" "substrate TotalCurrent" "substrate Charge" "source OuterVoltage" "source InnerVoltage"
    "source QuasiFermiPotential" "source DisplacementCurrent" "source eCurrent" "source hCurrent" "source TotalCurrent"
    "source Charge" "drain OuterVoltage" "drain InnerVoltage" "drain QuasiFermiPotential" "drain DisplacementCurrent"
    "drain eCurrent" "drain hCurrent" "drain TotalCurrent" "drain Charge" "gate OuterVoltage"
    "gate InnerVoltage" "gate QuasiFermiPotential" "gate DisplacementCurrent" "gate eCurrent" "gate hCurrent"
    "gate TotalCurrent" "gate Charge" ]
  functions = [
    Time
    OuterVoltage InnerVoltage QuasiFermiPotential DisplacementCurrent eCurrent
    hCurrent TotalCurrent Charge OuterVoltage InnerVoltage
    QuasiFermiPotential DisplacementCurrent eCurrent hCurrent TotalCurrent
    Charge OuterVoltage InnerVoltage QuasiFermiPotential DisplacementCurrent
    eCurrent hCurrent TotalCurrent Charge OuterVoltage
    InnerVoltage QuasiFermiPotential DisplacementCurrent eCurrent hCurrent
    TotalCurrent Charge ]
}

Data {
      0.00000000000000E+00
      0.00000000000000E+00   0.00000000000000E+00   0.00000000000000E+00   0.00000000000000E+00   1.27262616217215E-17
     -4.56940044403350E-29   1.27262616216758E-17  -2.56900502355593E-15   0.00000000000000E+00   0.00000000000000E+00
      0.00000000000000E+00   0.00000000000000E+00  -6.36257842045627E-18   9.62715442381141E-29  -6.36257842036000E-18
      6.43704568102337E-16   0.00000000000000E+00   0.00000000000000E+00   0.00000000000000E+00   0.00000000000000E+00
     -6.36368320126553E-18  -5.03105438686468E-29  -6.36368320131584E-18   6.43704568102337E-16   3.00000000000000E+00
      3.00000000000000E+00   0.00000000000000E+00   0.00000000000000E+00   0.00000000000000E+00   0.00000000000000E+00
      0.00000000000000E+00   1.28159588735126E-15
      1.00000000000000E-02
      0.00000000000000E+00   0.00000000000000E+00   0.00000000000000E+00   0.00000000000000E+00   3.55772113174088E-17
     -2.64248955543368E-17   9.15231576307193E-18  -2.58442719973858E-15   0.00000000000000E+00   0.00000000000000E+00
      0.00000000000000E+00   0.00000000000000E+00  -1.15456375134033E-05  -7.95176295039860E-25  -1.15456375134033E-05
      6.43494765658476E-16   3.00000000000000E-02   3.00000000000000E-02   0.00000000000000E+00   0.00000000000000E+00
      1.15456375133941E-05   1.02969033108852E-20   1.15456375133941E-05   6.66710630433665E-16   3.00000000000000E+00
      3.00000000000000E+00   0.00000000000000E+00   0.00000000000000E+00   0.00000000000000E+00   0.00000000000000E+00
      0.00000000000000E+00   1.27422180364644E-15
      2.33333333333333E-02
      0.00000000000000E+00   0.00000000000000E+00   0.00000000000000E+00   0.00000000000000E+00   2.83695683015780E-17
     -4.82051286187912E-17  -1.98355603172132E-17  -2.60498533283691E-15   0.00000000000000E+00   0.00000000000000E+00
      0.00000000000000E+00   0.00000000000000E+00  -2.25288968614034E-05  -1.55019584070776E-24  -2.25288968614034E-05
      6.43269318169705E-16   7.00000000000000E-02   7.00000000000000E-02   0.00000000000000E+00   0.00000000000000E+00
      2.25288968614232E-05   2.15570913723870E-20   2.25288968614232E-05   6.97119869920903E-16   3.00000000000000E+00
      3.00000000000000E+00   0.00000000000000E+00   0.00000000000000E+00   0.00000000000000E+00   0.00000000000000E+00
      0.00000000000000E+00   1.26459614474630E-15
      4.24444444444445E-02
      0.00000000000000E+00   0.00000000000000E+00   0.00000000000000E+00   0.00000000000000E+00  -4.69561377763025E-18
     -7.08134506374131E-17  -7.55090644150434E-17  -2.63468848423362E-15   0.00000000000000E+00   0.00000000000000E+00
      0.00000000000000E+00   0.00000000000000E+00  -3.18683627375565E-05  -2.19255686513264E-24  -3.18683627375565E-05
      6.43045459268838E-16   1.27333333333333E-01   1.27333333333333E-01   0.00000000000000E+00   0.00000000000000E+00
      3.18683627376320E-05   1.60314678859678E-20   3.18683627376320E-05   7.40275003744133E-16   3.00000000000000E+00
      3.00000000000000E+00   0.00000000000000E+00   0.00000000000000E+00   0.00000000000000E+00   0.00000000000000E+00
      0.00000000000000E+00   1.25136802122065E-15
      6.74444444444444E-02
      0.00000000000000E+00   0.00000000000000E+00   0.00000000000000E+00   0.00000000000000E+00   1.14351185258875E-17
     -9.99092528013150E-17  -8.84741342754275E-17  -2.67435310919353E-15   0.00000000000000E+00   0.00000000000000E+00
      0.00000000000000E+00   0.00000000000000E+00  -3.78628051191812E-05  -2.60434792814182E-24  -3.78628051191812E-05
      6.42875028712208E-16   2.02333333333333E-01   2.02333333333333E-01   0.00000000000000E+00   0.00000000000000E+00
      3.78628051192696E-05   8.24855675908726E-20   3.78628051192697E-05   7.96172843173213E-16   3.00000000000000E+00
      3.00000000000000E+00   0.00000000000000E+00   0.00000000000000E+00   0.00000000000000E+00   0.00000000000000E+00
      0.00000000000000E+00   1.23530523730811E-15
      9.24444444444444E-02
      0.00000000000000E+00   0.00000000000000E+00   0.00000000000000E+00   0.00000000000000E+00   1.99742887814448E-17
     -1.35933253205973E-16  -1.15958964424528E-16  -2.71489349772075E-15   0.00000000000000E+00   0.00000000000000E+00
      0.00000000000000E+00   0.00000000000000E+00  -4.11780245378991E-05  -2.83522650887380E-24  -4.11780245378991E-05
      6.42768075263860E-16   2.77333333333333E-01   2.77333333333333E-01   0.00000000000000E+00   0.00000000000000E+00
      4.11780245380150E-05   2.08634503224752E-20   4.11780245380150E-05   8.51640059726718E-16   3.00000000000000E+00
      3.00000000000000E+00   0.00000000000000E+00   0.00000000000000E+00   0.00000000000000E+00   0.00000000000000E+00
      0.00000000000000E+00   1.22048536273017E-15
      1.17444444444444E-01
      0.00000000000000E+00   0.00000000000000E+00   0.00000000000000E+00   0.00000000000000E+00   5.97132532729459E-17
     -1.82124328030983E-16  -1.22411074758037E-16  -2.75594419766078E-15   0.00000000000000E+00   0.00000000000000E+00
      0.00000000000000E+00   0.00000000000000E+00  -4.35890277689071E-05  -3.00019519822222E-24  -4.35890277689071E-05
      6.42684558785577E-16   3.52333333333333E-01   3.52333333333333E-01   0.00000000000000E+00   0.00000000000000E+00
      4.35890277690295E-05   1.73338185832662E-20   4.35890277690295E-05   9.06745036247098E-16   3.00000000000000E+00
      3.00000000000000E+00   0.00000000000000E+00   0.00000000000000E+00   0.00000000000000E+00   0.00000000000000E+00
      0.00000000000000E+00   1.20651460262811E-15
      1.42444444444444E-01
      0.00000000000000E+00   0.00000000000000E+00   0.00000000000000E+00   0.00000000000000E+00   4.24204234908861E-17
     -2.35425722678770E-16  -1.93005299187884E-16  -2.79717721527498E-15   0.00000000000000E+00   0.00000000000000E+00
      0.00000000000000E+00   0.00000000000000E+00  -4.55916823396914E-05  -3.13994754444344E-24  -4.55916823396914E-05
      6.42611663397121E-16   4.27333333333333E-01   4.27333333333333E-01   0.00000000000000E+00   0.00000000000000E+00
      4.55916823398843E-05   2.14978665857192E-20   4.55916823398843E-05   9.61446392349499E-16   3.00000000000000E+00
      3.00000000000000E+00   0.00000000000000E+00   0.00000000000000E+00   0.00000000000000E+00   0.00000000000000E+00
      0.00000000000000E+00   1.19311915952836E-15
      1.67444444444444E-01
      0.00000000000000E+00   0.00000000000000E+00   0.00000000000000E+00   0.00000000000000E+00   2.06259238043737E-16
     -2.94766791501902E-16  -8.85075534581652E-17  -2.83833817160566E-15   0.00000000000000E+00   0.00000000000000E+00
      0.00000000000000E+00   0.00000000000000E+00  -4.73690894135019E-05  -3.26004420577038E-24  -4.73690894135019E-05
      6.42544362914933E-16   5.02333333333333E-01   5.02333333333333E-01   0.00000000000000E+00   0.00000000000000E+00
      4.73690894135902E-05   1.53784597801627E-19   4.73690894135904E-05   1.01565597868692E-15   3.00000000000000E+00
      3.00000000000000E+00   0.00000000000000E+00   0.00000000000000E+00   0.00000000000000E+00   0.00000000000000E+00
      0.00000000000000E+00   1.18013783000380E-15
      1.92444444444444E-01
      0.00000000000000E+00   0.00000000000000E+00   0.00000000000000E+00   0.00000000000000E+00   1.83760837307548E-17
     -3.64137017589407E-16  -3.45760933858652E-16  -2.87925686034807E-15   0.00000000000000E+00   0.00000000000000E+00
      0.00000000000000E+00   0.00000000000000E+00  -4.89926691319381E-05  -3.37343313166870E-24  -4.89926691319381E-05
      6.42480763742321E-16   5.77333333333333E-01   5.77333333333333E-01   0.00000000000000E+00   0.00000000000000E+00
      4.89926691322838E-05   5.22340003863066E-20   4.89926691322839E-05   1.06926565386818E-15   3.00000000000000E+00
      3.00000000000000E+00   0.00000000000000E+00   0.00000000000000E+00   0.00000000000000E+00   0.00000000000000E+00
      0.00000000000000E+00   1.16751044273756E-15
      2.17444444444444E-01
      0.00000000000000E+00   0.00000000000000E+00   0.00000000000000E+00   0.00000000000000E+00   8.25319858590893E-18
     -4.35007991924239E-16  -4.26754793338330E-16  -2.91957382701995E-15   0.00000000000000E+00   0.00000000000000E+00
      0.00000000000000E+00   0.00000000000000E+00  -5.05241014994907E-05  -3.47786077510437E-24  -5.05241014994907E-05
      6.42418956507884E-16   6.52333333333333E-01   6.52333333333333E-01   0.00000000000000E+00   0.00000000000000E+00
      5.05241014999175E-05   2.10243935106042E-20   5.05241014999175E-05   1.12205078056429E-15   3.00000000000000E+00
      3.00000000000000E+00   0.00000000000000E+00   0.00000000000000E+00   0.00000000000000E+00   0.00000000000000E+00
      0.00000000000000E+00   1.15510408994777E-15
      2.42444444444444E-01
      0.00000000000000E+00   0.00000000000000E+00   0.00000000000000E+00   0.00000000000000E+00   7.34330700835924E-16
     -4.91049679480372E-16   2.43281021355552E-16  -2.95909723197426E-15   0.00000000000000E+00   0.00000000000000E+00
      0.00000000000000E+00   0.00000000000000E+00  -5.19950301656810E-05  -3.58001372087496E-24  -5.19950301656810E-05
      6.42357954036589E-16   7.27333333333333E-01   7.27333333333333E-01   0.00000000000000E+00   0.00000000000000E+00
      5.19950301654377E-05   3.49178097062685E-20   5.19950301654377E-05   1.17388777118222E-15   3.00000000000000E+00
      3.00000000000000E+00   0.00000000000000E+00   0.00000000000000E+00   0.00000000000000E+00   0.00000000000000E+00
      0.00000000000000E+00   1.14285150675545E-15
      2.67444444444444E-01
      0.00000000000000E+00   0.00000000000000E+00   0.00000000000000E+00   0.00000000000000E+00   8.73103184847613E-15
     -5.28571770505595E-16   8.20246007797054E-15  -2.99795908034127E-15   0.00000000000000E+00   0.00000000000000E+00
      0.00000000000000E+00   0.00000000000000E+00  -5.34118728677119E-05  -3.67670134871684E-24  -5.34118728677119E-05
      6.42297672045854E-16   8.02333333333333E-01   8.02333333333333E-01   0.00000000000000E+00   0.00000000000000E+00
      5.34118728595091E-05   2.56979279837707E-19   5.34118728595094E-05   1.22488844219836E-15   3.00000000000000E+00
      3.00000000000000E+00   0.00000000000000E+00   0.00000000000000E+00   0.00000000000000E+00   0.00000000000000E+00
      0.00000000000000E+00   1.13077296609706E-15
      2.92444444444444E-01
      0.00000000000000E+00   0.00000000000000E+00   0.00000000000000E+00   0.00000000000000E+00  -9.30742698837584E-16
     -5.54699588851617E-16  -1.48544228768920E-15  -3.03641172708558E-15   0.00000000000000E+00   0.00000000000000E+00
      0.00000000000000E+00   0.00000000000000E+00  -5.47788962164845E-05  -3.77136564613924E-24  -5.47788962164845E-05
      6.42238082515834E-16   8.77333333333333E-01   8.77333333333334E-01   0.00000000000000E+00   0.00000000000000E+00
      5.47788962179700E-05   1.92502739898574E-20   5.47788962179700E-05   1.27529243695489E-15   3.00000000000000E+00
      3.00000000000000E+00   0.00000000000000E+00   0.00000000000000E+00   0.00000000000000E+00   0.00000000000000E+00
      0.00000000000000E+00   1.11888120761485E-15
      3.17444444444444E-01
      0.00000000000000E+00   0.00000000000000E+00   0.00000000000000E+00   0.00000000000000E+00   1.22507416288711E-15
     -5.73615591878101E-16   6.51458571009010E-16  -3.07457548390935E-15   0.00000000000000E+00   0.00000000000000E+00
      0.00000000000000E+00   0.00000000000000E+00  -5.61083935428553E-05  -3.86254218234258E-24  -5.61083935428553E-05
      6.42178784939296E-16   9.52333333333333E-01   9.52333333333333E-01   0.00000000000000E+00   0.00000000000000E+00
      5.61083935422038E-05   1.73941720110877E-20   5.61083935422038E-05   1.32527056412813E-15   3.00000000000000E+00
      3.00000000000000E+00   0.00000000000000E+00   0.00000000000000E+00   0.00000000000000E+00   0.00000000000000E+00
      0.00000000000000E+00   1.10712613484192E-15
      3.42444444444444E-01
      0.00000000000000E+00   0.00000000000000E+00   0.00000000000000E+00   0.00000000000000E+00  -1.70670034436112E-13
     -5.85364742104670E-16  -1.71255399178216E-13  -3.11254049628262E-15   0.00000000000000E+00   0.00000000000000E+00
      0.00000000000000E+00   0.00000000000000E+00  -5.74122451128649E-05  -3.95204135233354E-24  -5.74122451128649E-05
      6.42119349014039E-16   1.02733333333333E+00   1.02733333333333E+00   0.00000000000000E+00   0.00000000000000E+00
      5.74122452841203E-05   1.73872328777548E-20   5.74122452841203E-05   1.37496210561684E-15   3.00000000000000E+00
      3.00000000000000E+00   0.00000000000000E+00   0.00000000000000E+00   0.00000000000000E+00   0.00000000000000E+00
      0.00000000000000E+00   1.09545904165174E-15
      3.67444444444445E-01
      0.00000000000000E+00   0.00000000000000E+00   0.00000000000000E+00   0.00000000000000E+00   8.74647051809980E-15
     -5.93460374275057E-16   8.15301014382474E-15  -3.15039002553378E-15   0.00000000000000E+00   0.00000000000000E+00
      0.00000000000000E+00   0.00000000000000E+00  -5.86967128081360E-05  -4.04119107685086E-24  -5.86967128081360E-05
      6.42059553954817E-16   1.10233333333333E+00   1.10233333333333E+00   0.00000000000000E+00   0.00000000000000E+00
      5.86967127999829E-05   1.73901829619442E-20   5.86967127999829E-05   1.42447233603438E-15   3.00000000000000E+00
      3.00000000000000E+00   0.00000000000000E+00   0.00000000000000E+00   0.00000000000000E+00   0.00000000000000E+00
      0.00000000000000E+00   1.08385813554458E-15
      3.92444444444445E-01
      0.00000000000000E+00   0.00000000000000E+00   0.00000000000000E+00   0.00000000000000E+00   2.42461580416174E-14
     -6.00975386539674E-16   2.36451826550778E-14  -3.18819290629567E-15   0.00000000000000E+00   0.00000000000000E+00
      0.00000000000000E+00   0.00000000000000E+00  -5.99648514155570E-05  -4.12826369831980E-24  -5.99648514155570E-05
      6.41999304308085E-16   1.17733333333333E+00   1.17733333333333E+00   0.00000000000000E+00   0.00000000000000E+00
      5.99648513919118E-05   1.73930791160528E-20   5.99648513919118E-05   1.47387743580135E-15   3.00000000000000E+00
      3.00000000000000E+00   0.00000000000000E+00   0.00000000000000E+00   0.00000000000000E+00   0.00000000000000E+00
      0.00000000000000E+00   1.07231616618624E-15
      4.17444444444445E-01
      0.00000000000000E+00   0.00000000000000E+00   0.00000000000000E+00   0.00000000000000E+00   6.81336677861176E-14
     -6.09021811145142E-16   6.75246459749725E-14  -3.22599574412438E-15   0.00000000000000E+00   0.00000000000000E+00
      0.00000000000000E+00   0.00000000000000E+00  -6.12192990680037E-05  -4.21646906352671E-24  -6.12192990680037E-05
      6.41938514761271E-16   1.25233333333333E+00   1.25233333333333E+00   0.00000000000000E+00   0.00000000000000E+00
      6.12192990004790E-05   1.73959868029660E-20   6.12192990004790E-05   1.52323002395800E-15   3.00000000000000E+00
      3.00000000000000E+00   0.00000000000000E+00   0.00000000000000E+00   0.00000000000000E+00   0.00000000000000E+00
      0.00000000000000E+00   1.06082720540511E-15
      4.42444444444445E-01
      0.00000000000000E+00   0.00000000000000E+00   0.00000000000000E+00   0.00000000000000E+00   2.24995131017557E-14
     -6.18405025167792E-16   2.18811080765879E-14  -3.26380299319872E-15   0.00000000000000E+00   0.00000000000000E+00
      0.00000000000000E+00   0.00000000000000E+00  -6.24626515340123E-05  -4.30055265660573E-24  -6.24626515340123E-05
      6.41877094412737E-16   1.32733333333333E+00   1.32733333333333E+00   0.00000000000000E+00   0.00000000000000E+00
      6.24626515121312E-05   1.73989639807793E-20   6.24626515121312E-05   1.57254321165262E-15   3.00000000000000E+00
      3.00000000000000E+00   0.00000000000000E+00   0.00000000000000E+00   0.00000000000000E+00   0.00000000000000E+00
      0.00000000000000E+00   1.04938268713337E-15
      4.67444444444445E-01
      0.00000000000000E+00   0.00000000000000E+00   0.00000000000000E+00   0.00000000000000E+00   1.53816783332197E-15
     -6.29988700007392E-16   9.08179133314574E-16  -3.30156126646974E-15   0.00000000000000E+00   0.00000000000000E+00
      0.00000000000000E+00   0.00000000000000E+00  -6.36974624322827E-05  -4.38612083803811E-24  -6.36974624322827E-05
      6.41814946587443E-16   1.40233333333333E+00   1.40233333333333E+00   0.00000000000000E+00   0.00000000000000E+00
      6.36974624313745E-05   1.74020119660644E-20   6.36974624313746E-05   1.62177631406659E-15   3.00000000000000E+00
      3.00000000000000E+00   0.00000000000000E+00   0.00000000000000E+00   0.00000000000000E+00   0.00000000000000E+00
      0.00000000000000E+00   1.03797000581570E-15
      4.92444444444445E-01
      0.00000000000000E+00   0.00000000000000E+00   0.00000000000000E+00   0.00000000000000E+00   1.93469264641039E-16
     -6.42377493817973E-16  -4.48908229176934E-16  -3.33920944220259E-15   0.00000000000000E+00   0.00000000000000E+00
      0.00000000000000E+00   0.00000000000000E+00  -6.49257303889515E-05  -4.47091288372744E-24  -6.49257303889515E-05
      6.41751993801384E-16   1.47733333333333E+00   1.47733333333333E+00   0.00000000000000E+00   0.00000000000000E+00
      6.49257303894004E-05   1.74049981356480E-20   6.49257303894004E-05   1.67087908713304E-15   3.00000000000000E+00
      3.00000000000000E+00   0.00000000000000E+00   0.00000000000000E+00   0.00000000000000E+00   0.00000000000000E+00
      0.00000000000000E+00   1.02657836126817E-15
      5.17444444444445E-01
      0.00000000000000E+00   0.00000000000000E+00   0.00000000000000E+00   0.00000000000000E+00   2.96440404390058E-16
     -6.53069078620436E-16  -3.56628674230378E-16  -3.37671279176706E-15   0.00000000000000E+00   0.00000000000000E+00
      0.00000000000000E+00   0.00000000000000E+00  -6.61487632924677E-05  -4.55563705002564E-24  -6.61487632924677E-05
      6.41688186259018E-16   1.55233333333333E+00   1.55233333333333E+00   0.00000000000000E+00   0.00000000000000E+00
      6.61487632928243E-05   1.74078926704404E-20   6.61487632928243E-05   1.71982286548576E-15   3.00000000000000E+00
      3.00000000000000E+00   0.00000000000000E+00   0.00000000000000E+00   0.00000000000000E+00   0.00000000000000E+00
      0.00000000000000E+00   1.01520174002228E-15
      5.42444444444445E-01
      0.00000000000000E+00   0.00000000000000E+00   0.00000000000000E+00   0.00000000000000E+00   1.15194397699894E-15
     -6.62760415058468E-16   4.89183561940472E-16  -3.41405424300816E-15   0.00000000000000E+00   0.00000000000000E+00
      0.00000000000000E+00   0.00000000000000E+00  -6.73674475906332E-05  -4.63810364800923E-24  -6.73674475906332E-05
      6.41623490309695E-16   1.62733333333333E+00   1.62733333333333E+00   0.00000000000000E+00   0.00000000000000E+00
      6.73674475901440E-05   1.74106991041662E-20   6.73674475901441E-05   1.76859350032494E-15   3.00000000000000E+00
      3.00000000000000E+00   0.00000000000000E+00   0.00000000000000E+00   0.00000000000000E+00   0.00000000000000E+00
      0.00000000000000E+00   1.00383725237352E-15
      5.67444444444445E-01
      0.00000000000000E+00   0.00000000000000E+00   0.00000000000000E+00   0.00000000000000E+00   2.31401690423457E-15
     -6.75267188736137E-16   1.63874971549844E-15  -3.45122147240778E-15   0.00000000000000E+00   0.00000000000000E+00
      0.00000000000000E+00   0.00000000000000E+00  -6.85824801858418E-05  -4.72294824202997E-24  -6.85824801858418E-05
      6.41557877690683E-16   1.70233333333333E+00   1.70233333333333E+00   0.00000000000000E+00   0.00000000000000E+00
      6.85824801842030E-05   1.74134240863391E-20   6.85824801842030E-05   1.81718009122775E-15   3.00000000000000E+00
      3.00000000000000E+00   0.00000000000000E+00   0.00000000000000E+00   0.00000000000000E+00   0.00000000000000E+00
      0.00000000000000E+00   9.92483503489349E-16
      5.92444444444445E-01
      0.00000000000000E+00   0.00000000000000E+00   0.00000000000000E+00   0.00000000000000E+00   6.72311185563842E-16
     -6.95878339112640E-16  -2.35671535487984E-17  -3.48819968960458E-15   0.00000000000000E+00   0.00000000000000E+00
      0.00000000000000E+00   0.00000000000000E+00  -6.97944807879416E-05  -4.80571370017961E-24  -6.97944807879416E-05
      6.41491320221486E-16   1.77733333333333E+00   1.77733333333333E+00   0.00000000000000E+00   0.00000000000000E+00
      6.97944807879651E-05   1.74160788902919E-20   6.97944807879651E-05   1.86556864469613E-15   3.00000000000000E+00
      3.00000000000000E+00   0.00000000000000E+00   0.00000000000000E+00   0.00000000000000E+00   0.00000000000000E+00
      0.00000000000000E+00   9.81139724686967E-16
      6.17444444444445E-01
      0.00000000000000E+00   0.00000000000000E+00   0.00000000000000E+00   0.00000000000000E+00   5.66057919643396E-17
     -7.28445297731528E-16  -6.71839505767188E-16  -3.52496943939746E-15   0.00000000000000E+00   0.00000000000000E+00
      0.00000000000000E+00   0.00000000000000E+00  -7.10039816297914E-05  -4.88884480676309E-24  -7.10039816297914E-05
      6.41423790826172E-16   1.85233333333333E+00   1.85233333333333E+00   0.00000000000000E+00   0.00000000000000E+00
      7.10039816304632E-05   1.74186729478314E-20   7.10039816304632E-05   1.91374000985984E-15   3.00000000000000E+00
      3.00000000000000E+00   0.00000000000000E+00   0.00000000000000E+00   0.00000000000000E+00   0.00000000000000E+00
      0.00000000000000E+00   9.69805638711449E-16
      6.42444444444445E-01
      0.00000000000000E+00   0.00000000000000E+00   0.00000000000000E+00   0.00000000000000E+00  -1.80579094645567E-18
     -7.68375398891996E-16  -7.70181189838452E-16  -3.56150600748237E-15   0.00000000000000E+00   0.00000000000000E+00
      0.00000000000000E+00   0.00000000000000E+00  -7.22114635191529E-05  -4.97192171567641E-24  -7.22114635191529E-05
      6.41355262301723E-16   1.92733333333333E+00   1.92733333333333E+00   0.00000000000000E+00   0.00000000000000E+00
      7.22114635199230E-05   1.74212116159983E-20   7.22114635199230E-05   1.96166991404430E-15   3.00000000000000E+00
      3.00000000000000E+00   0.00000000000000E+00   0.00000000000000E+00   0.00000000000000E+00   0.00000000000000E+00
      0.00000000000000E+00   9.58480831136349E-16
      6.67444444444445E-01
      0.00000000000000E+00   0.00000000000000E+00   0.00000000000000E+00   0.00000000000000E+00   1.05330584845401E-18
     -8.03418413327907E-16  -8.02365107479453E-16  -3.59778260009525E-15   0.00000000000000E+00   0.00000000000000E+00
      0.00000000000000E+00   0.00000000000000E+00  -7.34173372186952E-05  -5.05556223875341E-24  -7.34173372186952E-05
      6.41285709059930E-16   2.00233333333333E+00   2.00233333333333E+00   0.00000000000000E+00   0.00000000000000E+00
      7.34173372194975E-05   1.74236886175327E-20   7.34173372194975E-05   2.00933192405406E-15   3.00000000000000E+00
      3.00000000000000E+00   0.00000000000000E+00   0.00000000000000E+00   0.00000000000000E+00   0.00000000000000E+00
      0.00000000000000E+00   9.47164966981244E-16
      6.92444444444445E-01
      0.00000000000000E+00   0.00000000000000E+00   0.00000000000000E+00   0.00000000000000E+00   7.21376049112333E-19
     -8.27433931388921E-16  -8.26712555339809E-16  -3.63376784406256E-15   0.00000000000000E+00   0.00000000000000E+00
      0.00000000000000E+00   0.00000000000000E+00  -7.46219973896251E-05  -5.13769834404367E-24  -7.46219973896251E-05
      6.41215104856615E-16   2.07733333333333E+00   2.07733333333333E+00   0.00000000000000E+00   0.00000000000000E+00
      7.46219973904518E-05   1.74260981652090E-20   7.46219973904518E-05   2.05669538699109E-15   3.00000000000000E+00
      3.00000000000000E+00   0.00000000000000E+00   0.00000000000000E+00   0.00000000000000E+00   0.00000000000000E+00
      0.00000000000000E+00   9.35857352214850E-16
      7.17444444444445E-01
      0.00000000000000E+00   0.00000000000000E+00   0.00000000000000E+00   0.00000000000000E+00  -2.61659911650361E-18
     -8.43136999760455E-16  -8.45753598876959E-16  -3.66942390842049E-15   0.00000000000000E+00   0.00000000000000E+00
      0.00000000000000E+00   0.00000000000000E+00  -7.58257884299984E-05  -5.21979344496629E-24  -7.58257884299984E-05
      6.41143425185452E-16   2.15233333333333E+00   2.15233333333333E+00   0.00000000000000E+00   0.00000000000000E+00
      7.58257884308441E-05   1.74284685386664E-20   7.58257884308441E-05   2.10372324957464E-15   3.00000000000000E+00
      3.00000000000000E+00   0.00000000000000E+00   0.00000000000000E+00   0.00000000000000E+00   0.00000000000000E+00
      0.00000000000000E+00   9.24557233660390E-16
      7.42444444444445E-01
      0.00000000000000E+00   0.00000000000000E+00   0.00000000000000E+00   0.00000000000000E+00  -1.14288270065003E-18
     -8.54848564400435E-16  -8.55991447101085E-16  -3.70470472275341E-15   0.00000000000000E+00   0.00000000000000E+00
      0.00000000000000E+00   0.00000000000000E+00  -7.70290035239869E-05  -5.30292921273932E-24  -7.70290035239869E-05
      6.41070647772890E-16   2.22733333333333E+00   2.22733333333333E+00   0.00000000000000E+00   0.00000000000000E+00
      7.70290035248429E-05   1.74307797928587E-20   7.70290035248429E-05   2.15037024588022E-15   3.00000000000000E+00
      3.00000000000000E+00   0.00000000000000E+00   0.00000000000000E+00   0.00000000000000E+00   0.00000000000000E+00
      0.00000000000000E+00   9.13263829100304E-16
      7.67444444444445E-01
      0.00000000000000E+00   0.00000000000000E+00   0.00000000000000E+00   0.00000000000000E+00  -3.65527901078956E-18
     -8.65451723723372E-16  -8.69107002734162E-16  -3.73955236792651E-15   0.00000000000000E+00   0.00000000000000E+00
      0.00000000000000E+00   0.00000000000000E+00  -7.82319434642363E-05  -5.38478063094226E-24  -7.82319434642363E-05
      6.40996749415702E-16   2.30233333333333E+00   2.30233333333333E+00   0.00000000000000E+00   0.00000000000000E+00
      7.82319434651053E-05   1.74330559246272E-20   7.82319434651054E-05   2.19657964925201E-15   3.00000000000000E+00
      3.00000000000000E+00   0.00000000000000E+00   0.00000000000000E+00   0.00000000000000E+00   0.00000000000000E+00
      0.00000000000000E+00   9.01975969258791E-16
      7.92444444444445E-01
      0.00000000000000E+00   0.00000000000000E+00   0.00000000000000E+00   0.00000000000000E+00  -3.78274796031491E-18
     -8.75682376432480E-16  -8.79465124392795E-16  -3.77390253535520E-15   0.00000000000000E+00   0.00000000000000E+00
      0.00000000000000E+00   0.00000000000000E+00  -7.94349005067664E-05  -5.47047421941156E-24  -7.94349005067664E-05
      6.40921706898474E-16   2.37733333333333E+00   2.37733333333333E+00   0.00000000000000E+00   0.00000000000000E+00
      7.94349005076458E-05   1.74352932935345E-20   7.94349005076459E-05   2.24228848872973E-15   3.00000000000000E+00
      3.00000000000000E+00   0.00000000000000E+00   0.00000000000000E+00   0.00000000000000E+00   0.00000000000000E+00
      0.00000000000000E+00   8.90692339726986E-16
      8.17444444444445E-01
      0.00000000000000E+00   0.00000000000000E+00   0.00000000000000E+00   0.00000000000000E+00  -6.17511630017042E-18
     -8.84354940406863E-16  -8.90530056707034E-16  -3.80770233530605E-15   0.00000000000000E+00   0.00000000000000E+00
      0.00000000000000E+00   0.00000000000000E+00  -8.06381185747228E-05  -5.55288111098546E-24  -8.06381185747228E-05
      6.40845499353246E-16   2.45233333333333E+00   2.45233333333333E+00   0.00000000000000E+00   0.00000000000000E+00
      8.06381185756132E-05   1.74374249301340E-20   8.06381185756133E-05   2.28744492873845E-15   3.00000000000000E+00
      3.00000000000000E+00   0.00000000000000E+00   0.00000000000000E+00   0.00000000000000E+00   0.00000000000000E+00
      0.00000000000000E+00   8.79411907214354E-16
      8.42444444444445E-01
      0.00000000000000E+00   0.00000000000000E+00   0.00000000000000E+00   0.00000000000000E+00   7.33959166584890E-19
     -8.90531288828174E-16  -8.89797329661589E-16  -3.84093374649452E-15   0.00000000000000E+00   0.00000000000000E+00
      0.00000000000000E+00   0.00000000000000E+00  -8.18418450268323E-05  -5.63559736057371E-24  -8.18418450268323E-05
      6.40768105130045E-16   2.52733333333333E+00   2.52733333333333E+00   0.00000000000000E+00   0.00000000000000E+00
      8.18418450277221E-05   1.74394605835593E-20   8.18418450277221E-05   2.33203206600223E-15   3.00000000000000E+00
      3.00000000000000E+00   0.00000000000000E+00   0.00000000000000E+00   0.00000000000000E+00   0.00000000000000E+00
      0.00000000000000E+00   8.68133575362230E-16
      8.67444444444445E-01
      0.00000000000000E+00   0.00000000000000E+00   0.00000000000000E+00   0.00000000000000E+00   1.23010729455399E-18