DF-ISE text

Info {
  version   = 1.0
  type      = xyplot
  datasets  = [
    "time"
    "substrate OuterVoltage" "substrate InnerVoltage" "substrate QuasiFermiPotential" "substrate DisplacementCurrent" "substrate eCurrent"
    "substrate hCurrent" "substrate TotalCurrent" "substrate Charge" "source OuterVoltage" "source InnerVoltage"
    "source QuasiFermiPotential" "source DisplacementCurrent" "source eCurrent" "source hCurrent" "source TotalCurrent"
    "source Charge" "drain OuterVoltage" "drain InnerVoltage" "drain QuasiFermiPotential" "drain DisplacementCurrent"
    "drain eCurrent" "drain hCurrent" "drain TotalCurrent" "drain Charge" "gate OuterVoltage"
    "gate InnerVoltage" "gate QuasiFermiPotential" "gate DisplacementCurrent" "gate eCurrent" "gate hCurrent"
    "gate TotalCurrent" "gate Charge" ]
  functions = [
    Time
    OuterVoltage InnerVoltage QuasiFermiPotential DisplacementCurrent eCurrent
    hCurrent TotalCurrent Charge OuterVoltage InnerVoltage
    QuasiFermiPotential DisplacementCurrent eCurrent hCurrent TotalCurrent
    Charge OuterVoltage InnerVoltage QuasiFermiPotential DisplacementCurrent
    eCurrent hCurrent TotalCurrent Charge OuterVoltage
    InnerVoltage QuasiFermiPotential DisplacementCurrent eCurrent hCurrent
    TotalCurrent Charge ]
}

Data {
      0.00000000000000E+00
      0.00000000000000E+00   0.00000000000000E+00   0.00000000000000E+00   0.00000000000000E+00   4.06639081364897E-18
     -8.65178064787751E-27   4.06639080499719E-18  -7.03138626753790E-15   0.00000000000000E+00   0.00000000000000E+00
      0.00000000000000E+00   0.00000000000000E+00  -2.12182620000610E-18   1.18910624113046E-26  -2.12182618811503E-18
      2.69681123154312E-15   0.00000000000000E+00   0.00000000000000E+00   0.00000000000000E+00   0.00000000000000E+00
     -1.94456461364214E-18  -3.24002207837390E-27  -1.94456461688216E-18   2.69681123154312E-15   1.00000000000000E+00
      1.00000000000000E+00   0.00000000000000E+00   0.00000000000000E+00   0.00000000000000E+00   0.00000000000000E+00
      0.00000000000000E+00   1.63776380445165E-15
      1.00000000000000E-02
      0.00000000000000E+00   0.00000000000000E+00   0.00000000000000E+00   0.00000000000000E+00   6.96887836564364E-17
     -6.83655861692531E-17   1.32319748718330E-18  -7.09200825396052E-15   0.00000000000000E+00   0.00000000000000E+00
      0.00000000000000E+00   0.00000000000000E+00  -3.64235081074887E-17  -1.76048063283969E-26  -3.64235081250935E-17
      2.69681123154310E-15   3.00000000000000E-02   3.00000000000000E-02   0.00000000000000E+00   0.00000000000000E+00
      3.50596131442421E-17   4.06974936678989E-20   3.51003106379100E-17   2.75988539793292E-15   1.00000000000000E+00
      1.00000000000000E+00   0.00000000000000E+00   0.00000000000000E+00   0.00000000000000E+00   0.00000000000000E+00
      0.00000000000000E+00   1.63531162448451E-15
      2.33333333333333E-02
      0.00000000000000E+00   0.00000000000000E+00   0.00000000000000E+00   0.00000000000000E+00   5.70238800074733E-19
     -1.30305652712881E-16  -1.29735413912806E-16  -7.17248880380636E-15   0.00000000000000E+00   0.00000000000000E+00
      0.00000000000000E+00   0.00000000000000E+00  -4.99384438257599E-17   2.02657972338877E-26  -4.99384438054941E-17
      2.69681123154307E-15   7.00000000000000E-02   7.00000000000000E-02   0.00000000000000E+00   0.00000000000000E+00
      1.79542557429512E-16   1.31300288788909E-19   1.79673857718300E-16   2.84350480452397E-15   1.00000000000000E+00
      1.00000000000000E+00   0.00000000000000E+00   0.00000000000000E+00   0.00000000000000E+00   0.00000000000000E+00
      0.00000000000000E+00   1.63217276773933E-15
      4.24444444444445E-02
      0.00000000000000E+00   0.00000000000000E+00   0.00000000000000E+00   0.00000000000000E+00  -3.23432767607431E-18
     -2.10351851052614E-16  -2.13586178728689E-16  -7.28724324225299E-15   0.00000000000000E+00   0.00000000000000E+00
      0.00000000000000E+00   0.00000000000000E+00  -5.12517499882529E-17   1.32532852923323E-27  -5.12517499869276E-17
      2.69681123154304E-15   1.27333333333333E-01   1.27333333333333E-01   0.00000000000000E+00   0.00000000000000E+00
      2.64778402734038E-16   5.95259815778700E-20   2.64837928715616E-16   2.96251913652231E-15   1.00000000000000E+00
      1.00000000000000E+00   0.00000000000000E+00   0.00000000000000E+00   0.00000000000000E+00   0.00000000000000E+00
      0.00000000000000E+00   1.62791287418765E-15
      6.74444444444444E-02
      0.00000000000000E+00   0.00000000000000E+00   0.00000000000000E+00   0.00000000000000E+00  -9.76303014027673E-19
     -3.34530071953486E-16  -3.35506374967514E-16  -7.43631306544624E-15   0.00000000000000E+00   0.00000000000000E+00
      0.00000000000000E+00   0.00000000000000E+00  -5.05921747989148E-17   3.08622474158610E-27  -5.05921747958285E-17
      2.69681123154299E-15   2.02333333333333E-01   2.02333333333333E-01   0.00000000000000E+00   0.00000000000000E+00
      3.86023623856422E-16   7.49259069211384E-20   3.86098549763343E-16   3.11684710957628E-15   1.00000000000000E+00
      1.00000000000000E+00   0.00000000000000E+00   0.00000000000000E+00   0.00000000000000E+00   0.00000000000000E+00
      0.00000000000000E+00   1.62265472432696E-15
      9.24444444444444E-02
      0.00000000000000E+00   0.00000000000000E+00   0.00000000000000E+00   0.00000000000000E+00   1.44454946552030E-18
     -4.83626319001911E-16  -4.82181769536390E-16  -7.58403976943010E-15   0.00000000000000E+00   0.00000000000000E+00
      0.00000000000000E+00   0.00000000000000E+00  -5.33451728268943E-17   1.50939995116785E-26  -5.33451728118003E-17
      2.69681123154294E-15   2.77333333333333E-01   2.77333333333333E-01   0.00000000000000E+00   0.00000000000000E+00
      5.35464494689521E-16   6.24476586692627E-20   5.35526942348190E-16   3.26963908704314E-15   1.00000000000000E+00
      1.00000000000000E+00   0.00000000000000E+00   0.00000000000000E+00   0.00000000000000E+00   0.00000000000000E+00
      0.00000000000000E+00   1.61758945084403E-15
      1.17444444444444E-01
      0.00000000000000E+00   0.00000000000000E+00   0.00000000000000E+00   0.00000000000000E+00   1.16620921092837E-18
     -6.48885850066399E-16  -6.47719640855471E-16  -7.73014294412558E-15   0.00000000000000E+00   0.00000000000000E+00
      0.00000000000000E+00   0.00000000000000E+00  -5.25242625331628E-17  -1.05152384850435E-26  -5.25242625436780E-17
      2.69681123154288E-15   3.52333333333333E-01   3.52333333333333E-01   0.00000000000000E+00   0.00000000000000E+00
      7.00195154675572E-16   4.87487235756452E-20   7.00243903399148E-16   3.42070766666373E-15   1.00000000000000E+00
      1.00000000000000E+00   0.00000000000000E+00   0.00000000000000E+00   0.00000000000000E+00   0.00000000000000E+00
      0.00000000000000E+00   1.61262404591898E-15
      1.42444444444444E-01
      0.00000000000000E+00   0.00000000000000E+00   0.00000000000000E+00   0.00000000000000E+00   7.20794842616104E-19
     -8.33858305863567E-16  -8.33137511020951E-16  -7.87424924181772E-15   0.00000000000000E+00   0.00000000000000E+00
      0.00000000000000E+00   0.00000000000000E+00  -5.21769137725495E-17   4.42147496882157E-27  -5.21769137681281E-17
      2.69681123154281E-15   4.27333333333333E-01   4.27333333333333E-01   0.00000000000000E+00   0.00000000000000E+00
      8.85247962585423E-16   6.64622036559794E-20   8.85314424789078E-16   3.56969793376338E-15   1.00000000000000E+00
      1.00000000000000E+00   0.00000000000000E+00   0.00000000000000E+00   0.00000000000000E+00   0.00000000000000E+00
      0.00000000000000E+00   1.60774007651153E-15
      1.67444444444444E-01
      0.00000000000000E+00   0.00000000000000E+00   0.00000000000000E+00   0.00000000000000E+00  -8.69485840770514E-19
     -1.05083443359102E-15  -1.05170391943179E-15  -8.01586530860428E-15   0.00000000000000E+00   0.00000000000000E+00
      0.00000000000000E+00   0.00000000000000E+00  -5.06522187617697E-17   2.85096132548746E-27  -5.06522187589187E-17
      2.69681123154273E-15   5.02333333333333E-01   5.02333333333333E-01   0.00000000000000E+00   0.00000000000000E+00
      1.10229265526012E-15   6.34829305939854E-20   1.10235613819072E-15   3.71610120533054E-15   1.00000000000000E+00
      1.00000000000000E+00   0.00000000000000E+00   0.00000000000000E+00   0.00000000000000E+00   0.00000000000000E+00
      0.00000000000000E+00   1.60295287173101E-15
      1.92444444444444E-01
      0.00000000000000E+00   0.00000000000000E+00   0.00000000000000E+00   0.00000000000000E+00   1.18894066670635E-18
     -1.30580891183999E-15  -1.30461997117329E-15  -8.15436361944962E-15   0.00000000000000E+00   0.00000000000000E+00
      0.00000000000000E+00   0.00000000000000E+00  -5.30266103556573E-17   2.91121499044854E-26  -5.30266103265451E-17
      2.69681123154263E-15   5.77333333333333E-01   5.77333333333333E-01   0.00000000000000E+00   0.00000000000000E+00
      1.35758698340676E-15   5.95980930705940E-20   1.35764658149983E-15   3.85926009973876E-15   1.00000000000000E+00
      1.00000000000000E+00   0.00000000000000E+00   0.00000000000000E+00   0.00000000000000E+00   0.00000000000000E+00
      0.00000000000000E+00   1.59829228816824E-15
      2.17444444444444E-01
      0.00000000000000E+00   0.00000000000000E+00   0.00000000000000E+00   0.00000000000000E+00  -2.28435103131803E-19
     -1.59000481418747E-15  -1.59023324929061E-15  -8.28902824601935E-15   0.00000000000000E+00   0.00000000000000E+00
      0.00000000000000E+00   0.00000000000000E+00  -5.15971548109174E-17   1.04376943228528E-26  -5.15971548004798E-17
      2.69681123154253E-15   6.52333333333333E-01   6.52333333333333E-01   0.00000000000000E+00   0.00000000000000E+00
      1.64177079046503E-15   5.96136260617437E-20   1.64183040409109E-15   3.99843112318542E-15   1.00000000000000E+00
      1.00000000000000E+00   0.00000000000000E+00   0.00000000000000E+00   0.00000000000000E+00   0.00000000000000E+00
      0.00000000000000E+00   1.59378589129140E-15
      2.42444444444444E-01
      0.00000000000000E+00   0.00000000000000E+00   0.00000000000000E+00   0.00000000000000E+00  -1.31370249078214E-18
     -1.83464573732418E-15  -1.83595943981496E-15  -8.41921131885522E-15   0.00000000000000E+00   0.00000000000000E+00
      0.00000000000000E+00   0.00000000000000E+00  -5.01394228487505E-17   2.30813525501760E-26  -5.01394228256692E-17
      2.69681123154244E-15   7.27333333333333E-01   7.27333333333333E-01   0.00000000000000E+00   0.00000000000000E+00
      1.88603924651986E-15   5.96161207619899E-20   1.88609886264062E-15   4.13296856476547E-15   1.00000000000000E+00
      1.00000000000000E+00   0.00000000000000E+00   0.00000000000000E+00   0.00000000000000E+00   0.00000000000000E+00
      0.00000000000000E+00   1.58943152254733E-15
      2.67444444444444E-01
      0.00000000000000E+00   0.00000000000000E+00   0.00000000000000E+00   0.00000000000000E+00   1.53899505431223E-18
     -1.98894418059498E-15  -1.98740518554067E-15  -8.54458969135019E-15   0.00000000000000E+00   0.00000000000000E+00
      0.00000000000000E+00   0.00000000000000E+00  -5.28072526136946E-17   3.35250427027894E-26  -5.28072525801696E-17
      2.69681123154238E-15   8.02333333333333E-01   8.02333333333333E-01   0.00000000000000E+00   0.00000000000000E+00
      2.04015281141995E-15   5.96267008858693E-20   2.04021243812083E-15   4.26259263824579E-15   1.00000000000000E+00
      1.00000000000000E+00   0.00000000000000E+00   0.00000000000000E+00   0.00000000000000E+00   0.00000000000000E+00
      0.00000000000000E+00   1.58518582156202E-15
      2.92444444444444E-01
      0.00000000000000E+00   0.00000000000000E+00   0.00000000000000E+00   0.00000000000000E+00   4.18942567361430E-19
     -2.08157630452650E-15  -2.08115736195914E-15  -8.66542253262519E-15   0.00000000000000E+00   0.00000000000000E+00
      0.00000000000000E+00   0.00000000000000E+00  -5.20149182450337E-17   1.76300453119689E-26  -5.20149182274036E-17
      2.69681123154234E-15   8.77333333333333E-01   8.77333333333333E-01   0.00000000000000E+00   0.00000000000000E+00
      2.13311264303695E-15   5.96371495830018E-20   2.13317228018654E-15   4.38761674247132E-15   1.00000000000000E+00
      1.00000000000000E+00   0.00000000000000E+00   0.00000000000000E+00   0.00000000000000E+00   0.00000000000000E+00
      0.00000000000000E+00   1.58099455861153E-15
      3.17444444444444E-01
      0.00000000000000E+00   0.00000000000000E+00   0.00000000000000E+00   0.00000000000000E+00   5.82278852540194E-19
     -2.14201819684068E-15  -2.14143591798814E-15  -8.78259009822238E-15   0.00000000000000E+00   0.00000000000000E+00
      0.00000000000000E+00   0.00000000000000E+00  -5.21823492019537E-17  -3.42600494262153E-26  -5.21823492362137E-17
      2.69681123154232E-15   9.52333333333333E-01   9.52333333333333E-01   0.00000000000000E+00   0.00000000000000E+00
      2.19355861996955E-15   5.96472548030478E-20   2.19361826722436E-15   4.50895713231125E-15   1.00000000000000E+00
      1.00000000000000E+00   0.00000000000000E+00   0.00000000000000E+00   0.00000000000000E+00   0.00000000000000E+00
      0.00000000000000E+00   1.57682173436881E-15
      3.42444444444444E-01
      0.00000000000000E+00   0.00000000000000E+00   0.00000000000000E+00   0.00000000000000E+00   3.45368789532361E-19
     -2.17976992306118E-15  -2.17942455427165E-15  -8.89722629535639E-15   0.00000000000000E+00   0.00000000000000E+00
      0.00000000000000E+00   0.00000000000000E+00  -5.20202378052471E-17   4.77198272901825E-27  -5.20202378004752E-17
      2.69681123154230E-15   1.02733333333333E+00   1.02733333333333E+00   0.00000000000000E+00   0.00000000000000E+00
      2.23138513477514E-15   5.96572969820242E-20   2.23144479207212E-15   4.62776473436896E-15   1.00000000000000E+00
      1.00000000000000E+00   0.00000000000000E+00   0.00000000000000E+00   0.00000000000000E+00   0.00000000000000E+00
      0.00000000000000E+00   1.57265032944511E-15
      3.67444444444445E-01
      0.00000000000000E+00   0.00000000000000E+00   0.00000000000000E+00   0.00000000000000E+00   4.24534481212465E-19
     -2.20236140958551E-15  -2.20193687510429E-15  -9.01025969444021E-15   0.00000000000000E+00   0.00000000000000E+00
      0.00000000000000E+00   0.00000000000000E+00  -5.21477253526805E-17  -1.26339487489710E-26  -5.21477253653145E-17
      2.69681123154229E-15   1.10233333333333E+00   1.10233333333333E+00   0.00000000000000E+00   0.00000000000000E+00
      2.25402493331580E-15   5.96671538047991E-20   2.25408460046961E-15   4.74497487348980E-15   1.00000000000000E+00
      1.00000000000000E+00   0.00000000000000E+00   0.00000000000000E+00   0.00000000000000E+00   0.00000000000000E+00
      0.00000000000000E+00   1.56847358940813E-15
      3.92444444444445E-01
      0.00000000000000E+00   0.00000000000000E+00   0.00000000000000E+00   0.00000000000000E+00  -4.59761360470934E-19
     -2.21701810357409E-15  -2.21747786493456E-15  -9.12227593723254E-15   0.00000000000000E+00   0.00000000000000E+00
      0.00000000000000E+00   0.00000000000000E+00  -5.13096603590309E-17   2.56762881178073E-26  -5.13096603333546E-17
      2.69681123154229E-15   1.17733333333333E+00   1.17733333333333E+00   0.00000000000000E+00   0.00000000000000E+00
      2.26872784831944E-15   5.96769484724849E-20   2.26878752526791E-15   4.86117559745546E-15   1.00000000000000E+00
      1.00000000000000E+00   0.00000000000000E+00   0.00000000000000E+00   0.00000000000000E+00   0.00000000000000E+00
      0.00000000000000E+00   1.56428910823479E-15
      4.17444444444445E-01
      0.00000000000000E+00   0.00000000000000E+00   0.00000000000000E+00   0.00000000000000E+00  -8.97242277133498E-20
     -2.22908325535781E-15  -2.22917297958553E-15  -9.23361274616586E-15   0.00000000000000E+00   0.00000000000000E+00
      0.00000000000000E+00   0.00000000000000E+00  -5.17271214667760E-17   1.01331283036402E-26  -5.17271214566429E-17
      2.69681123154228E-15   1.25233333333333E+00   1.25233333333333E+00   0.00000000000000E+00   0.00000000000000E+00
      2.28084041422822E-15   5.96868139496924E-20   2.28090010104217E-15   4.97670538893365E-15   1.00000000000000E+00
      1.00000000000000E+00   0.00000000000000E+00   0.00000000000000E+00   0.00000000000000E+00   0.00000000000000E+00
      0.00000000000000E+00   1.56009612568994E-15
      4.42444444444445E-01
      0.00000000000000E+00   0.00000000000000E+00   0.00000000000000E+00   0.00000000000000E+00  -3.62583201981433E-19
     -2.24204017367195E-15  -2.24240275687393E-15  -9.34445931550094E-15   0.00000000000000E+00   0.00000000000000E+00
      0.00000000000000E+00   0.00000000000000E+00  -5.15005302485663E-17  -1.83576212377505E-26  -5.15005302669239E-17
      2.69681123154228E-15   1.32733333333333E+00   1.32733333333333E+00   0.00000000000000E+00   0.00000000000000E+00
      2.29384359022045E-15   5.96969204016750E-20   2.29390328714085E-15   5.09175363763627E-15   1.00000000000000E+00
      1.00000000000000E+00   0.00000000000000E+00   0.00000000000000E+00   0.00000000000000E+00   0.00000000000000E+00
      0.00000000000000E+00   1.55589444632239E-15
      4.67444444444445E-01
      0.00000000000000E+00   0.00000000000000E+00   0.00000000000000E+00   0.00000000000000E+00  -1.57396595693274E-18
     -2.25735464138906E-15  -2.25892860734599E-15  -9.45491075234971E-15   0.00000000000000E+00   0.00000000000000E+00
      0.00000000000000E+00   0.00000000000000E+00  -5.10655664530434E-17   2.92706682890703E-26  -5.10655664237728E-17
      2.69681123154226E-15   1.40233333333333E+00   1.40233333333333E+00   0.00000000000000E+00   0.00000000000000E+00
      2.30993495448054E-15   5.92192892180083E-20   2.30999417376976E-15   5.20641548054085E-15   1.00000000000000E+00
      1.00000000000000E+00   0.00000000000000E+00   0.00000000000000E+00   0.00000000000000E+00   0.00000000000000E+00
      0.00000000000000E+00   1.55168404026660E-15
      4.92444444444445E-01
      0.00000000000000E+00   0.00000000000000E+00   0.00000000000000E+00   0.00000000000000E+00  -8.03905688422831E-19
     -2.27687404042096E-15  -2.27767794610938E-15  -9.56500283846109E-15   0.00000000000000E+00   0.00000000000000E+00
      0.00000000000000E+00   0.00000000000000E+00  -5.12655975812203E-17   2.76875967387273E-26  -5.12655975535327E-17
      2.69681123154225E-15   1.47733333333333E+00   1.47733333333333E+00   0.00000000000000E+00   0.00000000000000E+00
      2.32888385458218E-15   5.96890807370548E-20   2.32894354366292E-15   5.32072669014398E-15   1.00000000000000E+00
      1.00000000000000E+00   0.00000000000000E+00   0.00000000000000E+00   0.00000000000000E+00   0.00000000000000E+00
      0.00000000000000E+00   1.54746491677486E-15
      5.17444444444445E-01
      0.00000000000000E+00   0.00000000000000E+00   0.00000000000000E+00   0.00000000000000E+00   1.86650872662270E-18
     -2.30491631652322E-15  -2.30304980779660E-15  -9.67473612740862E-15   0.00000000000000E+00   0.00000000000000E+00
      0.00000000000000E+00   0.00000000000000E+00  -5.38699722286440E-17   2.88007780796615E-26  -5.38699721998432E-17
      2.69681123154221E-15   1.55233333333333E+00   1.55233333333333E+00   0.00000000000000E+00   0.00000000000000E+00
      2.35686003479118E-15   5.97452052723882E-20   2.35691977999645E-15   5.43468780202562E-15   1.00000000000000E+00
      1.00000000000000E+00   0.00000000000000E+00   0.00000000000000E+00   0.00000000000000E+00   0.00000000000000E+00
      0.00000000000000E+00   1.54323709384077E-15
      5.42444444444445E-01
      0.00000000000000E+00   0.00000000000000E+00   0.00000000000000E+00   0.00000000000000E+00  -2.19081915149941E-18
     -2.34658678328075E-15  -2.34877760243224E-15  -9.78408972894772E-15   0.00000000000000E+00   0.00000000000000E+00
      0.00000000000000E+00   0.00000000000000E+00  -4.98568491692946E-17   4.55157694873573E-26  -4.98568491237788E-17
      2.69681123154218E-15   1.62733333333333E+00   1.62733333333333E+00   0.00000000000000E+00   0.00000000000000E+00
      2.39857471501423E-15   5.97365417854722E-20   2.39863445155602E-15   5.54827790961033E-15   1.00000000000000E+00
      1.00000000000000E+00   0.00000000000000E+00   0.00000000000000E+00   0.00000000000000E+00   0.00000000000000E+00
      0.00000000000000E+00   1.53900058779520E-15
      5.67444444444445E-01
      0.00000000000000E+00   0.00000000000000E+00   0.00000000000000E+00   0.00000000000000E+00   3.82106603945723E-19
     -2.40864916280550E-15  -2.40826705620156E-15  -9.89302740830477E-15   0.00000000000000E+00   0.00000000000000E+00
      0.00000000000000E+00   0.00000000000000E+00  -5.24756261304040E-17   2.91550618700102E-26  -5.24756261012490E-17
      2.69681123154215E-15   1.70233333333333E+00   1.70233333333333E+00   0.00000000000000E+00   0.00000000000000E+00
      2.46068294299523E-15   5.97393075750096E-20   2.46074268230281E-15   5.66146077558072E-15   1.00000000000000E+00
      1.00000000000000E+00   0.00000000000000E+00   0.00000000000000E+00   0.00000000000000E+00   0.00000000000000E+00
      0.00000000000000E+00   1.53475540118190E-15
      5.92444444444445E-01
      0.00000000000000E+00   0.00000000000000E+00   0.00000000000000E+00   0.00000000000000E+00  -3.27739062111134E-18
     -2.50142018657680E-15  -2.50469757719791E-15  -1.00014996904305E-14   0.00000000000000E+00   0.00000000000000E+00
      0.00000000000000E+00   0.00000000000000E+00  -4.88616829750263E-17  -2.29692752514648E-26  -4.88616829979955E-17
      2.69681123154195E-15   1.77733333333333E+00   1.77733333333333E+00   0.00000000000000E+00   0.00000000000000E+00
      2.55349951533684E-15   5.97448590760020E-20   2.55355926019591E-15   5.77418694340337E-15   1.00000000000000E+00
      1.00000000000000E+00   0.00000000000000E+00   0.00000000000000E+00   0.00000000000000E+00   0.00000000000000E+00
      0.00000000000000E+00   1.53050151548517E-15
      6.17444444444445E-01
      0.00000000000000E+00   0.00000000000000E+00   0.00000000000000E+00   0.00000000000000E+00  -2.30408864824789E-18
     -2.63296292488711E-15  -2.63526701353536E-15  -1.01094443868086E-14   0.00000000000000E+00   0.00000000000000E+00
      0.00000000000000E+00   0.00000000000000E+00  -4.98807282808204E-17  -2.13553073135646E-26  -4.98807283021757E-17
      2.69681123154178E-15   1.85233333333333E+00   1.85233333333333E+00   0.00000000000000E+00   0.00000000000000E+00
      2.68508799183854E-15   5.97499990039929E-20   2.68514774183754E-15   5.88639425607166E-15   1.00000000000000E+00
      1.00000000000000E+00   0.00000000000000E+00   0.00000000000000E+00   0.00000000000000E+00   0.00000000000000E+00
      0.00000000000000E+00   1.52623889919518E-15
      6.42444444444445E-01
      0.00000000000000E+00   0.00000000000000E+00   0.00000000000000E+00   0.00000000000000E+00   1.32854135914153E-19
     -2.79859888324640E-15  -2.79846602911049E-15  -1.02167856720694E-14   0.00000000000000E+00   0.00000000000000E+00
      0.00000000000000E+00   0.00000000000000E+00  -5.23639520048187E-17   6.69132002980567E-27  -5.23639519981273E-17
      2.69681123154206E-15   1.92733333333333E+00   1.92733333333333E+00   0.00000000000000E+00   0.00000000000000E+00
      2.85077020506725E-15   5.97760413707086E-20   2.85082998110862E-15   5.99800691074010E-15   1.00000000000000E+00
      1.00000000000000E+00   0.00000000000000E+00   0.00000000000000E+00   0.00000000000000E+00   0.00000000000000E+00
      0.00000000000000E+00   1.52196752978727E-15
      6.67444444444445E-01
      0.00000000000000E+00   0.00000000000000E+00   0.00000000000000E+00   0.00000000000000E+00   2.65155007206857E-18
     -2.96965952851707E-15  -2.96700797844500E-15  -1.03234298620661E-14   0.00000000000000E+00   0.00000000000000E+00
      0.00000000000000E+00   0.00000000000000E+00  -5.49254396264935E-17  -1.18027250629394E-26  -5.49254396382962E-17
      2.69681123154181E-15   2.00233333333333E+00   2.00233333333333E+00   0.00000000000000E+00   0.00000000000000E+00
      3.02187364055947E-15   5.97775238278623E-20   3.02193341808330E-15   6.10893121533857E-15   1.00000000000000E+00
      1.00000000000000E+00   0.00000000000000E+00   0.00000000000000E+00   0.00000000000000E+00   0.00000000000000E+00
      0.00000000000000E+00   1.51768741518570E-15
      6.92444444444445E-01
      0.00000000000000E+00   0.00000000000000E+00   0.00000000000000E+00   0.00000000000000E+00   5.25870838664060E-19
     -3.10500736121306E-15  -3.10448149037440E-15  -1.04292561592403E-14   0.00000000000000E+00   0.00000000000000E+00
      0.00000000000000E+00   0.00000000000000E+00  -5.28455749794122E-17   1.81479986386137E-26  -5.28455749612642E-17
      2.69681123154186E-15   2.07733333333333E+00   2.07733333333333E+00   0.00000000000000E+00   0.00000000000000E+00
      3.15726727315850E-15   5.97921771676853E-20   3.15732706533567E-15   6.21904632835972E-15   1.00000000000000E+00
      1.00000000000000E+00   0.00000000000000E+00   0.00000000000000E+00   0.00000000000000E+00   0.00000000000000E+00
      0.00000000000000E+00   1.51339859933874E-15
      7.17444444444445E-01
      0.00000000000000E+00   0.00000000000000E+00   0.00000000000000E+00   0.00000000000000E+00   1.51676587610906E-18
     -3.18984798880902E-15  -3.18833122293291E-15  -1.05341032974150E-14   0.00000000000000E+00   0.00000000000000E+00
      0.00000000000000E+00   0.00000000000000E+00  -5.38842373878974E-17   5.02508631555167E-26  -5.38842373376466E-17
      2.69681123154188E-15   2.15233333333333E+00   2.15233333333333E+00   0.00000000000000E+00   0.00000000000000E+00
      3.24215565939289E-15   5.98008776606178E-20   3.24221546027056E-15   6.32819091627290E-15   1.00000000000000E+00
      1.00000000000000E+00   0.00000000000000E+00   0.00000000000000E+00   0.00000000000000E+00   0.00000000000000E+00
      0.00000000000000E+00   1.50910114960024E-15
      7.42444444444445E-01
      0.00000000000000E+00   0.00000000000000E+00   0.00000000000000E+00   0.00000000000000E+00   1.25090652013231E-18
     -3.24001908219921E-15  -3.23876817567908E-15  -1.06377561312870E-14   0.00000000000000E+00   0.00000000000000E+00
      0.00000000000000E+00   0.00000000000000E+00  -5.36645964340047E-17  -2.75113919758339E-27  -5.36645964367558E-17
      2.69681123154190E-15   2.22733333333333E+00   2.22733333333333E+00   0.00000000000000E+00   0.00000000000000E+00
      3.29237296264562E-15   5.98094702173073E-20   3.29243277211583E-15   6.43614976359459E-15   1.00000000000000E+00
      1.00000000000000E+00   0.00000000000000E+00   0.00000000000000E+00   0.00000000000000E+00   0.00000000000000E+00
      0.00000000000000E+00   1.50479513615048E-15
      7.67444444444445E-01
      0.00000000000000E+00   0.00000000000000E+00   0.00000000000000E+00   0.00000000000000E+00   1.05870975019398E-18
     -3.27391634544238E-15  -3.27285763569219E-15  -1.07399391094948E-14   0.00000000000000E+00   0.00000000000000E+00
      0.00000000000000E+00   0.00000000000000E+00  -5.35179384408962E-17   6.64002748615649E-27  -5.35179384342561E-17
      2.69681123154189E-15   2.30233333333333E+00   2.30233333333333E+00   0.00000000000000E+00   0.00000000000000E+00
      3.32631575688335E-15   5.98172431015430E-20   3.32637557412645E-15   6.54264726438108E-15   1.00000000000000E+00
      1.00000000000000E+00   0.00000000000000E+00   0.00000000000000E+00   0.00000000000000E+00   0.00000000000000E+00
      0.00000000000000E+00   1.50048061357179E-15
      7.92444444444445E-01
      0.00000000000000E+00   0.00000000000000E+00   0.00000000000000E+00   0.00000000000000E+00   9.48749399425983E-19
     -3.29986325293013E-15  -3.29891450353070E-15  -1.08403285925873E-14   0.00000000000000E+00   0.00000000000000E+00
      0.00000000000000E+00   0.00000000000000E+00  -5.34534755851585E-17  -7.65102312768218E-27  -5.34534755928096E-17
      2.69681123154188E-15   2.37733333333333E+00   2.37733333333333E+00   0.00000000000000E+00   0.00000000000000E+00
      3.35230815436017E-15   5.98247633504227E-20   3.35236797912352E-15   6.64735975257928E-15   1.00000000000000E+00
      1.00000000000000E+00   0.00000000000000E+00   0.00000000000000E+00   0.00000000000000E+00   0.00000000000000E+00
      0.00000000000000E+00   1.49615760846616E-15
      8.17444444444445E-01
      0.00000000000000E+00   0.00000000000000E+00   0.00000000000000E+00   0.00000000000000E+00   7.94461418000643E-19
     -3.32045551748772E-15  -3.31966105606972E-15  -1.09386006606471E-14   0.00000000000000E+00   0.00000000000000E+00
      0.00000000000000E+00   0.00000000000000E+00  -5.33446450710399E-17  -8.49649930313644E-27  -5.33446450795364E-17
      2.69681123154187E-15   2.45233333333333E+00   2.45233333333333E+00   0.00000000000000E+00   0.00000000000000E+00
      3.37294586913660E-15   5.98320126530142E-20   3.37300570114925E-15   6.74996331552825E-15   1.00000000000000E+00
      1.00000000000000E+00   0.00000000000000E+00   0.00000000000000E+00   0.00000000000000E+00   0.00000000000000E+00
      0.00000000000000E+00   1.49182611357698E-15
      8.42444444444445E-01
      0.00000000000000E+00   0.00000000000000E+00   0.00000000000000E+00   0.00000000000000E+00  -3.40862272356806E-18
     -3.33627275920438E-15  -3.33968138192795E-15  -1.10345228560609E-14   0.00000000000000E+00   0.00000000000000E+00
      0.00000000000000E+00   0.00000000000000E+00  -4.91869794871645E-17  -9.92691935421548E-28  -4.91869794881572E-17
      2.69681123154186E-15   2.52733333333333E+00   2.52733333333333E+00   0.00000000000000E+00   0.00000000000000E+00
      3.38880852244139E-15   5.98389747221780E-20   3.38886836141611E-15   6.85022553649179E-15   1.00000000000000E+00
      1.00000000000000E+00   0.00000000000000E+00   0.00000000000000E+00   0.00000000000000E+00   0.00000000000000E+00
      0.00000000000000E+00   1.48748608802728E-15
      8.67444444444445E-01
      0.00000000000000E+00   0.00000000000000E+00   0.00000000000000E+00   0.00000000000000E+00   6.09684301768406E-19