DF-ISE text

Info {
  version   = 1.0
  type      = xyplot
  datasets  = [
    "time"
    "substrate OuterVoltage" "substrate InnerVoltage" "substrate QuasiFermiPotential" "substrate DisplacementCurrent" "substrate eCurrent"
    "substrate hCurrent" "substrate TotalCurrent" "substrate Charge" "source OuterVoltage" "source InnerVoltage"
    "source QuasiFermiPotential" "source DisplacementCurrent" "source eCurrent" "source hCurrent" "source TotalCurrent"
    "source Charge" "drain OuterVoltage" "drain InnerVoltage" "drain QuasiFermiPotential" "drain DisplacementCurrent"
    "drain eCurrent" "drain hCurrent" "drain TotalCurrent" "drain Charge" "gate OuterVoltage"
    "gate InnerVoltage" "gate QuasiFermiPotential" "gate DisplacementCurrent" "gate eCurrent" "gate hCurrent"
    "gate TotalCurrent" "gate Charge" ]
  functions = [
    Time
    OuterVoltage InnerVoltage QuasiFermiPotential DisplacementCurrent eCurrent
    hCurrent TotalCurrent Charge OuterVoltage InnerVoltage
    QuasiFermiPotential DisplacementCurrent eCurrent hCurrent TotalCurrent
    Charge OuterVoltage InnerVoltage QuasiFermiPotential DisplacementCurrent
    eCurrent hCurrent TotalCurrent Charge OuterVoltage
    InnerVoltage QuasiFermiPotential DisplacementCurrent eCurrent hCurrent
    TotalCurrent Charge ]
}

Data {
      0.00000000000000E+00
      0.00000000000000E+00   0.00000000000000E+00   0.00000000000000E+00   0.00000000000000E+00  -7.41242184391571E-19
     -4.59443227730990E-27  -7.41242188986004E-19  -3.90947851964530E-15   0.00000000000000E+00   0.00000000000000E+00
      0.00000000000000E+00   0.00000000000000E+00   3.71868821079224E-19   2.09270985563849E-27   3.71868823171934E-19
      1.48622053269797E-15   0.00000000000000E+00   0.00000000000000E+00   0.00000000000000E+00   0.00000000000000E+00
      3.69373363312407E-19   2.50166215065863E-27   3.69373365814069E-19   1.48622053269797E-15   1.00000000000000E+00
      1.00000000000000E+00   0.00000000000000E+00   0.00000000000000E+00   0.00000000000000E+00   0.00000000000000E+00
      0.00000000000000E+00   9.37037454249343E-16
      1.00000000000000E-02
      0.00000000000000E+00   0.00000000000000E+00   0.00000000000000E+00   0.00000000000000E+00   1.20312925097146E-16
     -3.20751664580573E-17   8.82377586390890E-17  -3.94472619770647E-15   0.00000000000000E+00   0.00000000000000E+00
      0.00000000000000E+00   0.00000000000000E+00  -7.26520812280517E-17   4.57304243872847E-27  -7.26520812234786E-17
      1.48622053269692E-15   3.00000000000000E-02   3.00000000000000E-02   0.00000000000000E+00   0.00000000000000E+00
     -1.56084749572022E-17   2.27975415917878E-20  -1.55856774156104E-17   1.52442712804304E-15   1.00000000000000E+00
      1.00000000000000E+00   0.00000000000000E+00   0.00000000000000E+00   0.00000000000000E+00   0.00000000000000E+00
      0.00000000000000E+00   9.34078536966511E-16
      2.33333333333333E-02
      0.00000000000000E+00   0.00000000000000E+00   0.00000000000000E+00   0.00000000000000E+00  -1.84328708591735E-18
     -6.11663546331932E-17  -6.30096417191105E-17  -3.99156866977704E-15   0.00000000000000E+00   0.00000000000000E+00
      0.00000000000000E+00   0.00000000000000E+00  -9.31361346694840E-17  -1.82183474190169E-27  -9.31361346713059E-17
      1.48622053269553E-15   7.00000000000000E-02   7.00000000000000E-02   0.00000000000000E+00   0.00000000000000E+00
      1.56115290888070E-16   3.04855023463917E-20   1.56145776390416E-16   1.57516437659576E-15   1.00000000000000E+00
      1.00000000000000E+00   0.00000000000000E+00   0.00000000000000E+00   0.00000000000000E+00   0.00000000000000E+00
      0.00000000000000E+00   9.30183760485748E-16
      4.24444444444445E-02
      0.00000000000000E+00   0.00000000000000E+00   0.00000000000000E+00   0.00000000000000E+00  -6.90688249496754E-19
     -1.00313147356813E-16  -1.01003835606310E-16  -4.05838135130198E-15   0.00000000000000E+00   0.00000000000000E+00
      0.00000000000000E+00   0.00000000000000E+00  -9.75866612079008E-17   3.10357862642314E-27  -9.75866612047972E-17
      1.48622053269353E-15   1.27333333333333E-01   1.27333333333333E-01   0.00000000000000E+00   0.00000000000000E+00
      1.98560791758984E-16   2.97050521231494E-20   1.98590496811107E-16   1.64748375706866E-15   1.00000000000000E+00
      1.00000000000000E+00   0.00000000000000E+00   0.00000000000000E+00   0.00000000000000E+00   0.00000000000000E+00
      0.00000000000000E+00   9.24677061539784E-16
      6.74444444444444E-02
      0.00000000000000E+00   0.00000000000000E+00   0.00000000000000E+00   0.00000000000000E+00  -9.85770007988876E-19
     -1.69094095809672E-16  -1.70079865817661E-16  -4.14511858281341E-15   0.00000000000000E+00   0.00000000000000E+00
      0.00000000000000E+00   0.00000000000000E+00  -9.79931664808822E-17  -8.30674551332428E-28  -9.79931664817128E-17
      1.48622053269090E-15   2.02333333333333E-01   2.02333333333333E-01   0.00000000000000E+00   0.00000000000000E+00
      2.68051197966947E-16   2.18343324266982E-20   2.68073032299374E-16   1.74132111148051E-15   1.00000000000000E+00
      1.00000000000000E+00   0.00000000000000E+00   0.00000000000000E+00   0.00000000000000E+00   0.00000000000000E+00
      0.00000000000000E+00   9.17576938641998E-16
      9.24444444444444E-02
      0.00000000000000E+00   0.00000000000000E+00   0.00000000000000E+00   0.00000000000000E+00  -7.18277940511716E-20
     -2.63676553905914E-16  -2.63748381699965E-16  -4.23098171074934E-15   0.00000000000000E+00   0.00000000000000E+00
      0.00000000000000E+00   0.00000000000000E+00  -9.89685369741425E-17   4.38696804096390E-27  -9.89685369697555E-17
      1.48622053268823E-15   2.77333333333333E-01   2.77333333333333E-01   0.00000000000000E+00   0.00000000000000E+00
      3.62538093982799E-16   1.78824686921748E-19   3.62716918669720E-16   1.83417905386144E-15   1.00000000000000E+00
      1.00000000000000E+00   0.00000000000000E+00   0.00000000000000E+00   0.00000000000000E+00   0.00000000000000E+00
      0.00000000000000E+00   9.10582124199673E-16
      1.17444444444444E-01
      0.00000000000000E+00   0.00000000000000E+00   0.00000000000000E+00   0.00000000000000E+00  -8.97256095626223E-19
     -3.79279040960311E-16  -3.80176297055937E-16  -4.31583012963055E-15   0.00000000000000E+00   0.00000000000000E+00
      0.00000000000000E+00   0.00000000000000E+00  -9.84426219792183E-17  -3.01476762154977E-27  -9.84426219822331E-17
      1.48622053268553E-15   3.52333333333333E-01   3.52333333333333E-01   0.00000000000000E+00   0.00000000000000E+00
      4.78393051844161E-16   2.25867194009459E-19   4.78618919038170E-16   1.92591588562618E-15   1.00000000000000E+00
      1.00000000000000E+00   0.00000000000000E+00   0.00000000000000E+00   0.00000000000000E+00   0.00000000000000E+00
      0.00000000000000E+00   9.03693711318844E-16
      1.42444444444444E-01
      0.00000000000000E+00   0.00000000000000E+00   0.00000000000000E+00   0.00000000000000E+00  -1.63228287872227E-18
     -5.09683486503887E-16  -5.11315769382609E-16  -4.39951343148972E-15   0.00000000000000E+00   0.00000000000000E+00
      0.00000000000000E+00   0.00000000000000E+00  -9.78138132672070E-17   3.94524495158857E-27  -9.78138132632617E-17
      1.48622053268280E-15   4.27333333333333E-01   4.27333333333333E-01   0.00000000000000E+00   0.00000000000000E+00
      6.09074719917850E-16   5.48627280214317E-20   6.09129582645871E-16   2.01638596877352E-15   1.00000000000000E+00
      1.00000000000000E+00   0.00000000000000E+00   0.00000000000000E+00   0.00000000000000E+00   0.00000000000000E+00
      0.00000000000000E+00   8.96906930033405E-16
      1.67444444444444E-01
      0.00000000000000E+00   0.00000000000000E+00   0.00000000000000E+00   0.00000000000000E+00   7.91006570411444E-19
     -6.51938253640600E-16  -6.51147247070189E-16  -4.48184742093342E-15   0.00000000000000E+00   0.00000000000000E+00
      0.00000000000000E+00   0.00000000000000E+00  -1.00852660025173E-16   1.89834768036888E-27  -1.00852660023275E-16
      1.48622053268004E-15   5.02333333333333E-01   5.02333333333333E-01   0.00000000000000E+00   0.00000000000000E+00
      7.51961813495173E-16   3.80935982905644E-20   7.51999907093464E-16   2.10542504449112E-15   1.00000000000000E+00
      1.00000000000000E+00   0.00000000000000E+00   0.00000000000000E+00   0.00000000000000E+00   0.00000000000000E+00
      0.00000000000000E+00   8.90201843762254E-16
      1.92444444444444E-01
      0.00000000000000E+00   0.00000000000000E+00   0.00000000000000E+00   0.00000000000000E+00  -1.64087561186015E-18
     -8.16514177611837E-16  -8.18155053223697E-16  -4.56256854642881E-15   0.00000000000000E+00   0.00000000000000E+00
      0.00000000000000E+00   0.00000000000000E+00  -9.87738795229877E-17  -2.08444050292421E-27  -9.87738795250722E-17
      1.48622053267723E-15   5.77333333333333E-01   5.77333333333333E-01   0.00000000000000E+00   0.00000000000000E+00
      9.15428645718924E-16   1.50028702984393E-18   9.16928932748768E-16   2.19279865993881E-15   1.00000000000000E+00
      1.00000000000000E+00   0.00000000000000E+00   0.00000000000000E+00   0.00000000000000E+00   0.00000000000000E+00
      0.00000000000000E+00   8.83549353812770E-16
      2.17444444444444E-01
      0.00000000000000E+00   0.00000000000000E+00   0.00000000000000E+00   0.00000000000000E+00   2.29667964513160E-19
     -9.82133684408355E-16  -9.81904016443842E-16  -4.64130577457955E-15   0.00000000000000E+00   0.00000000000000E+00
      0.00000000000000E+00   0.00000000000000E+00  -1.00917350686093E-16  -6.04205560983357E-27  -1.00917350692135E-16
      1.48622053267437E-15   6.52333333333333E-01   6.52333333333333E-01   0.00000000000000E+00   0.00000000000000E+00
      1.08294405697498E-15  -1.22689839004251E-19   1.08282136713598E-15   2.27816190843030E-15   1.00000000000000E+00
      1.00000000000000E+00   0.00000000000000E+00   0.00000000000000E+00   0.00000000000000E+00   0.00000000000000E+00
      0.00000000000000E+00   8.76923333474872E-16
      2.42444444444444E-01
      0.00000000000000E+00   0.00000000000000E+00   0.00000000000000E+00   0.00000000000000E+00   1.26630554599329E-18
     -1.09457856699422E-15  -1.09331226144822E-15  -4.71763165631066E-15   0.00000000000000E+00   0.00000000000000E+00
      0.00000000000000E+00   0.00000000000000E+00  -1.02315405745875E-16   3.52745879306779E-27  -1.02315405742347E-16
      1.48622053267147E-15   7.27333333333333E-01   7.27333333333333E-01   0.00000000000000E+00   0.00000000000000E+00
      1.19559348003585E-15   3.41871547179526E-20   1.19562766719057E-15   2.36110450345868E-15   1.00000000000000E+00
      1.00000000000000E+00   0.00000000000000E+00   0.00000000000000E+00   0.00000000000000E+00   0.00000000000000E+00
      0.00000000000000E+00   8.70306620180504E-16
      2.67444444444444E-01
      0.00000000000000E+00   0.00000000000000E+00   0.00000000000000E+00   0.00000000000000E+00   1.52088177082007E-18
     -1.14838647920990E-15  -1.14686559743908E-15  -4.79125530563640E-15   0.00000000000000E+00   0.00000000000000E+00
      0.00000000000000E+00   0.00000000000000E+00  -1.02900871622932E-16   4.63622271704795E-27  -1.02900871618296E-16
      1.48622053266853E-15   8.02333333333333E-01   8.02333333333333E-01   0.00000000000000E+00   0.00000000000000E+00
      1.24973233908433E-15   3.41299730518592E-20   1.24976646905738E-15   2.44134470521325E-15   1.00000000000000E+00
      1.00000000000000E+00   0.00000000000000E+00   0.00000000000000E+00   0.00000000000000E+00   0.00000000000000E+00
      0.00000000000000E+00   8.63690067754603E-16
      2.92444444444444E-01
      0.00000000000000E+00   0.00000000000000E+00   0.00000000000000E+00   0.00000000000000E+00   5.46845344458341E-19
     -1.17513892229400E-15  -1.17459207694954E-15  -4.86228824196182E-15   0.00000000000000E+00   0.00000000000000E+00
      0.00000000000000E+00   0.00000000000000E+00  -1.02261529547098E-16  -4.04636576861797E-27  -1.02261529551145E-16
      1.48622053266554E-15   8.77333333333333E-01   8.77333333333334E-01   0.00000000000000E+00   0.00000000000000E+00
      1.27681949178533E-15   3.41147153558068E-20   1.27685360650069E-15   2.51899820593891E-15   1.00000000000000E+00
      1.00000000000000E+00   0.00000000000000E+00   0.00000000000000E+00   0.00000000000000E+00   0.00000000000000E+00
      0.00000000000000E+00   8.57069503357358E-16
      3.17444444444444E-01
      0.00000000000000E+00   0.00000000000000E+00   0.00000000000000E+00   0.00000000000000E+00  -1.59421965414656E-19
     -1.19125753684081E-15  -1.19141695880623E-15  -4.93127216247178E-15   0.00000000000000E+00   0.00000000000000E+00
      0.00000000000000E+00   0.00000000000000E+00  -1.01884995202475E-16  -1.55591077088234E-27  -1.01884995204031E-16
      1.48622053266248E-15   9.52333333333333E-01   9.52333333333333E-01   0.00000000000000E+00   0.00000000000000E+00
      1.29326783362420E-15   3.41203860622687E-20   1.29330195401026E-15   2.59460835906902E-15   1.00000000000000E+00
      1.00000000000000E+00   0.00000000000000E+00   0.00000000000000E+00   0.00000000000000E+00   0.00000000000000E+00
      0.00000000000000E+00   8.50443270740265E-16
      3.42444444444444E-01
      0.00000000000000E+00   0.00000000000000E+00   0.00000000000000E+00   0.00000000000000E+00   1.07968462839445E-18
     -1.20142623998632E-15  -1.20034655535793E-15  -4.99886617688491E-15   0.00000000000000E+00   0.00000000000000E+00
      0.00000000000000E+00   0.00000000000000E+00  -1.03447368507933E-16  -4.08168732703624E-27  -1.03447368512014E-16
      1.48622053265935E-15   1.02733333333333E+00   1.02733333333333E+00   0.00000000000000E+00   0.00000000000000E+00
      1.30375979792573E-15   3.41259442101844E-20   1.30379392386994E-15   2.66883488967619E-15   1.00000000000000E+00
      1.00000000000000E+00   0.00000000000000E+00   0.00000000000000E+00   0.00000000000000E+00   0.00000000000000E+00
      0.00000000000000E+00   8.43810754549364E-16
      3.67444444444445E-01
      0.00000000000000E+00   0.00000000000000E+00   0.00000000000000E+00   0.00000000000000E+00  -4.22760382726049E-19
     -1.20971447299909E-15  -1.21013723338181E-15  -5.06556712299635E-15   0.00000000000000E+00   0.00000000000000E+00
      0.00000000000000E+00   0.00000000000000E+00  -1.02265278932869E-16  -2.59825062546270E-27  -1.02265278935468E-16
      1.48622053265614E-15   1.10233333333333E+00   1.10233333333333E+00   0.00000000000000E+00   0.00000000000000E+00
      1.31236838088390E-15   3.41314333761503E-20   1.31240251231728E-15   2.74217498376286E-15   1.00000000000000E+00
      1.00000000000000E+00   0.00000000000000E+00   0.00000000000000E+00   0.00000000000000E+00   0.00000000000000E+00
      0.00000000000000E+00   8.37171606577343E-16
      3.92444444444445E-01
      0.00000000000000E+00   0.00000000000000E+00   0.00000000000000E+00   0.00000000000000E+00  -6.43047721100003E-19
     -1.21895148149237E-15  -1.21959452921347E-15  -5.13166627425978E-15   0.00000000000000E+00   0.00000000000000E+00
      0.00000000000000E+00   0.00000000000000E+00  -1.02362291272311E-16   4.09301791146434E-27  -1.02362291268218E-16
      1.48622053265286E-15   1.17733333333333E+00   1.17733333333333E+00   0.00000000000000E+00   0.00000000000000E+00
      1.32192268360353E-15   3.41368781595201E-20   1.32195682048169E-15   2.81492033871449E-15   1.00000000000000E+00
      1.00000000000000E+00   0.00000000000000E+00   0.00000000000000E+00   0.00000000000000E+00   0.00000000000000E+00
      0.00000000000000E+00   8.30525402892428E-16
      4.17444444444445E-01
      0.00000000000000E+00   0.00000000000000E+00   0.00000000000000E+00   0.00000000000000E+00  -9.66059894425021E-19
     -1.22969497018982E-15  -1.23066103008425E-15  -5.19731455925404E-15   0.00000000000000E+00   0.00000000000000E+00
      0.00000000000000E+00   0.00000000000000E+00  -1.02351799966092E-16   1.62298164334976E-27  -1.02351799964469E-16
      1.48622053264950E-15   1.25233333333333E+00   1.25233333333333E+00   0.00000000000000E+00   0.00000000000000E+00
      1.33297868768411E-15   3.41423646067610E-20   1.33301283004872E-15   2.88722246151706E-15   1.00000000000000E+00
      1.00000000000000E+00   0.00000000000000E+00   0.00000000000000E+00   0.00000000000000E+00   0.00000000000000E+00
      0.00000000000000E+00   8.23871565087479E-16
      4.42444444444445E-01
      0.00000000000000E+00   0.00000000000000E+00   0.00000000000000E+00   0.00000000000000E+00   2.84932693745758E-19
     -1.24143353086000E-15  -1.24114859816625E-15  -5.26258460046849E-15   0.00000000000000E+00   0.00000000000000E+00
      0.00000000000000E+00   0.00000000000000E+00  -1.03811650026833E-16  -4.13612011652028E-28  -1.03811650027247E-16
      1.48622053264551E-15   1.32733333333333E+00   1.32733333333333E+00   0.00000000000000E+00   0.00000000000000E+00
      1.34492892579062E-15   3.13224028793384E-20   1.34496024819350E-15   2.95915463201985E-15   1.00000000000000E+00
      1.00000000000000E+00   0.00000000000000E+00   0.00000000000000E+00   0.00000000000000E+00   0.00000000000000E+00
      0.00000000000000E+00   8.17209435803127E-16
      4.67444444444445E-01
      0.00000000000000E+00   0.00000000000000E+00   0.00000000000000E+00   0.00000000000000E+00  -2.69591635789952E-20
     -1.25469233232659E-15  -1.25471929149016E-15  -5.32750884682734E-15   0.00000000000000E+00   0.00000000000000E+00
      0.00000000000000E+00   0.00000000000000E+00  -1.03876562338382E-16  -4.19753275043882E-27  -1.03876562342579E-16
      1.48622053264192E-15   1.40233333333333E+00   1.40233333333333E+00   0.00000000000000E+00   0.00000000000000E+00
      1.35856349752622E-15   3.23563065294631E-20   1.35859585383275E-15   3.03074989919079E-15   1.00000000000000E+00
      1.00000000000000E+00   0.00000000000000E+00   0.00000000000000E+00   0.00000000000000E+00   0.00000000000000E+00
      0.00000000000000E+00   8.10538414994644E-16
      4.92444444444445E-01
      0.00000000000000E+00   0.00000000000000E+00   0.00000000000000E+00   0.00000000000000E+00   1.41803525650295E-18
     -1.27153634835829E-15  -1.27011831310179E-15  -5.39210070514114E-15   0.00000000000000E+00   0.00000000000000E+00
      0.00000000000000E+00   0.00000000000000E+00  -1.05659040540481E-16  -4.47790661385436E-27  -1.05659040544958E-16
      1.48622053263891E-15   1.47733333333333E+00   1.47733333333333E+00   0.00000000000000E+00   0.00000000000000E+00
      1.37574319383082E-15   3.41598159232934E-20   1.37577735364674E-15   3.10202209475511E-15   1.00000000000000E+00
      1.00000000000000E+00   0.00000000000000E+00   0.00000000000000E+00   0.00000000000000E+00   0.00000000000000E+00
      0.00000000000000E+00   8.03858077747115E-16
      5.17444444444445E-01
      0.00000000000000E+00   0.00000000000000E+00   0.00000000000000E+00   0.00000000000000E+00   1.10484805089816E-18
     -1.29310114244900E-15  -1.29199629439810E-15  -5.45636613555885E-15   0.00000000000000E+00   0.00000000000000E+00
      0.00000000000000E+00   0.00000000000000E+00  -1.05647815035725E-16  -1.02294160761274E-27  -1.05647815036748E-16
      1.48622053263520E-15   1.55233333333333E+00   1.55233333333333E+00   0.00000000000000E+00   0.00000000000000E+00
      1.39760994399176E-15   3.41654430882007E-20   1.39764410943485E-15   3.17297737376536E-15   1.00000000000000E+00
      1.00000000000000E+00   0.00000000000000E+00   0.00000000000000E+00   0.00000000000000E+00   0.00000000000000E+00
      0.00000000000000E+00   7.97168229158291E-16
      5.42444444444445E-01
      0.00000000000000E+00   0.00000000000000E+00   0.00000000000000E+00   0.00000000000000E+00  -9.83424262312997E-19
     -1.31792216366592E-15  -1.31890558792823E-15  -5.52031025665966E-15   0.00000000000000E+00   0.00000000000000E+00
      0.00000000000000E+00   0.00000000000000E+00  -1.03858962404971E-16   4.77854017541660E-27  -1.03858962400193E-16
      1.48622053263140E-15   1.62733333333333E+00   1.62733333333333E+00   0.00000000000000E+00   0.00000000000000E+00
      1.42273037947431E-15   3.41708541110116E-20   1.42276455032842E-15   3.24362082929678E-15   1.00000000000000E+00
      1.00000000000000E+00   0.00000000000000E+00   0.00000000000000E+00   0.00000000000000E+00   0.00000000000000E+00
      0.00000000000000E+00   7.90468894731470E-16
      5.67444444444445E-01
      0.00000000000000E+00   0.00000000000000E+00   0.00000000000000E+00   0.00000000000000E+00  -7.98814091703970E-19
     -1.34654997737396E-15  -1.34734879146566E-15  -5.58394004341512E-15   0.00000000000000E+00   0.00000000000000E+00
      0.00000000000000E+00   0.00000000000000E+00  -1.04340474170075E-16   7.56406343887549E-27  -1.04340474162511E-16
      1.48622053262751E-15   1.70233333333333E+00   1.70233333333333E+00   0.00000000000000E+00   0.00000000000000E+00
      1.45165508956113E-15   3.41760670424191E-20   1.45168926562818E-15   3.31395924206463E-15   1.00000000000000E+00
      1.00000000000000E+00   0.00000000000000E+00   0.00000000000000E+00   0.00000000000000E+00   0.00000000000000E+00
      0.00000000000000E+00   7.83760268722970E-16
      5.92444444444445E-01
      0.00000000000000E+00   0.00000000000000E+00   0.00000000000000E+00   0.00000000000000E+00  -8.09382315320465E-19
     -1.38620477876306E-15  -1.38701416107838E-15  -5.64726219209810E-15   0.00000000000000E+00   0.00000000000000E+00
      0.00000000000000E+00   0.00000000000000E+00  -1.04624196147432E-16   1.73582111706310E-27  -1.04624196145696E-16
      1.48622053262339E-15   1.77733333333333E+00   1.77733333333333E+00   0.00000000000000E+00   0.00000000000000E+00
      1.49160418628459E-15   3.41709394852309E-20   1.49163835722408E-15   3.38399901608954E-15   1.00000000000000E+00
      1.00000000000000E+00   0.00000000000000E+00   0.00000000000000E+00   0.00000000000000E+00   0.00000000000000E+00
      0.00000000000000E+00   7.77042643385167E-16
      6.17444444444445E-01
      0.00000000000000E+00   0.00000000000000E+00   0.00000000000000E+00   0.00000000000000E+00  -4.62681334999115E-19
     -1.44879142759474E-15  -1.44925410892974E-15  -5.71027706089947E-15   0.00000000000000E+00   0.00000000000000E+00
      0.00000000000000E+00   0.00000000000000E+00  -1.05262975350288E-16   1.00905131923730E-27  -1.05262975349279E-16
      1.48622053261942E-15   1.85233333333333E+00   1.85233333333333E+00   0.00000000000000E+00   0.00000000000000E+00
      1.55448289936365E-15   3.41849153656283E-20   1.55451708427902E-15   3.45374018933494E-15   1.00000000000000E+00
      1.00000000000000E+00   0.00000000000000E+00   0.00000000000000E+00   0.00000000000000E+00   0.00000000000000E+00
      0.00000000000000E+00   7.70316338945121E-16
      6.42444444444445E-01
      0.00000000000000E+00   0.00000000000000E+00   0.00000000000000E+00   0.00000000000000E+00  -1.30155449120514E-18
     -1.53812393127120E-15  -1.53942548576240E-15  -5.77297218154030E-15   0.00000000000000E+00   0.00000000000000E+00
      0.00000000000000E+00   0.00000000000000E+00  -1.04713743086817E-16   2.48871543324906E-27  -1.04713743084329E-16
      1.48622053261526E-15   1.92733333333333E+00   1.92733333333333E+00   0.00000000000000E+00   0.00000000000000E+00
      1.64410503823108E-15   3.41906156529976E-20   1.64413922884673E-15   3.52316999595838E-15   1.00000000000000E+00
      1.00000000000000E+00   0.00000000000000E+00   0.00000000000000E+00   0.00000000000000E+00   0.00000000000000E+00
      0.00000000000000E+00   7.63581652966636E-16
      6.67444444444445E-01
      0.00000000000000E+00   0.00000000000000E+00   0.00000000000000E+00   0.00000000000000E+00   4.49106378514772E-19
     -1.63405811448474E-15  -1.63360900810622E-15  -5.83531772798771E-15   0.00000000000000E+00   0.00000000000000E+00
      0.00000000000000E+00   0.00000000000000E+00  -1.06751587947693E-16  -3.27260365244699E-27  -1.06751587950966E-16
      1.48622053261101E-15   2.00233333333333E+00   2.00233333333333E+00   0.00000000000000E+00   0.00000000000000E+00
      1.74032640082419E-15   3.41952330019431E-20   1.74036059605719E-15   3.59225835783403E-15   1.00000000000000E+00
      1.00000000000000E+00   0.00000000000000E+00   0.00000000000000E+00   0.00000000000000E+00   0.00000000000000E+00
      0.00000000000000E+00   7.56838837542662E-16
      6.92444444444445E-01
      0.00000000000000E+00   0.00000000000000E+00   0.00000000000000E+00   0.00000000000000E+00   1.79738224570638E-18
     -1.70844477785763E-15  -1.70664739561193E-15  -5.89726342520135E-15   0.00000000000000E+00   0.00000000000000E+00
      0.00000000000000E+00   0.00000000000000E+00  -1.08384690318347E-16   2.01048933218799E-27  -1.08384690316337E-16
      1.48622053260672E-15   2.07733333333333E+00   2.07733333333333E+00   0.00000000000000E+00   0.00000000000000E+00
      1.81499788627489E-15   3.41996533764615E-20   1.81503208592827E-15   3.66095479396532E-15   1.00000000000000E+00
      1.00000000000000E+00   0.00000000000000E+00   0.00000000000000E+00   0.00000000000000E+00   0.00000000000000E+00
      0.00000000000000E+00   7.50088098629301E-16
      7.17444444444445E-01
      0.00000000000000E+00   0.00000000000000E+00   0.00000000000000E+00   0.00000000000000E+00   5.66615285595385E-20
     -1.75373760582669E-15  -1.75368094429813E-15  -5.95873526596638E-15   0.00000000000000E+00   0.00000000000000E+00
      0.00000000000000E+00   0.00000000000000E+00  -1.06926543970370E-16   8.88384129111211E-28  -1.06926543969482E-16
      1.48622053260244E-15   2.15233333333333E+00   2.15233333333333E+00   0.00000000000000E+00   0.00000000000000E+00
      1.86057328433600E-15   3.42039316077227E-20   1.86060748826761E-15   3.72918512736470E-15   1.00000000000000E+00
      1.00000000000000E+00   0.00000000000000E+00   0.00000000000000E+00   0.00000000000000E+00   0.00000000000000E+00
      0.00000000000000E+00   7.43329605999245E-16
      7.42444444444445E-01
      0.00000000000000E+00   0.00000000000000E+00   0.00000000000000E+00   0.00000000000000E+00  -1.20023331334614E-18
     -1.77871829522499E-15  -1.77991852853833E-15  -6.01963121315096E-15   0.00000000000000E+00   0.00000000000000E+00
      0.00000000000000E+00   0.00000000000000E+00  -1.05950233996373E-16  -2.62542859891851E-28  -1.05950233996635E-16
      1.48622053259824E-15   2.22733333333333E+00   2.22733333333333E+00   0.00000000000000E+00   0.00000000000000E+00
      1.88583455451969E-15   3.42080152794437E-20   1.88586876253497E-15   3.79684717607022E-15   1.00000000000000E+00
      1.00000000000000E+00   0.00000000000000E+00   0.00000000000000E+00   0.00000000000000E+00   0.00000000000000E+00
      0.00000000000000E+00   7.36563504482502E-16
      7.67444444444445E-01
      0.00000000000000E+00   0.00000000000000E+00   0.00000000000000E+00   0.00000000000000E+00  -8.94834207760395E-20
     -1.79363184706975E-15  -1.79372133049053E-15  -6.07981698528187E-15   0.00000000000000E+00   0.00000000000000E+00
      0.00000000000000E+00   0.00000000000000E+00  -1.07339618205266E-16   2.38246689659875E-27  -1.07339618202883E-16
      1.48622053259419E-15   2.30233333333333E+00   2.30233333333333E+00   0.00000000000000E+00   0.00000000000000E+00
      1.90102673755032E-15   3.42111430906522E-20   1.90106094869341E-15   3.86380653112678E-15   1.00000000000000E+00
      1.00000000000000E+00   0.00000000000000E+00   0.00000000000000E+00   0.00000000000000E+00   0.00000000000000E+00
      0.00000000000000E+00   7.29789921560891E-16
      7.92444444444445E-01
      0.00000000000000E+00   0.00000000000000E+00   0.00000000000000E+00   0.00000000000000E+00   1.24066218554760E-18
     -1.80474322741844E-15  -1.80350256523289E-15  -6.13912663814477E-15   0.00000000000000E+00   0.00000000000000E+00
      0.00000000000000E+00   0.00000000000000E+00  -1.08946217463405E-16   1.57039902655039E-27  -1.08946217461834E-16
      1.48622053258811E-15   2.37733333333333E+00   2.37733333333333E+00   0.00000000000000E+00   0.00000000000000E+00
      1.91241456676798E-15   3.42159267440202E-20   1.91244878269473E-15   3.92989713545945E-15   1.00000000000000E+00
      1.00000000000000E+00   0.00000000000000E+00   0.00000000000000E+00   0.00000000000000E+00   0.00000000000000E+00
      0.00000000000000E+00   7.23008970097209E-16
      8.17444444444445E-01
      0.00000000000000E+00   0.00000000000000E+00   0.00000000000000E+00   0.00000000000000E+00  -2.81595159892210E-19
     -1.81425988050156E-15  -1.81454147566145E-15  -6.19737884863678E-15   0.00000000000000E+00   0.00000000000000E+00
      0.00000000000000E+00   0.00000000000000E+00  -1.07698271787956E-16  -4.48465455826393E-28  -1.07698271788404E-16
      1.48622053258325E-15   2.45233333333333E+00   2.45233333333333E+00   0.00000000000000E+00   0.00000000000000E+00
      1.92220552782761E-15   3.42196222446094E-20   1.92223974744986E-15   3.99493756843624E-15   1.00000000000000E+00
      1.00000000000000E+00   0.00000000000000E+00   0.00000000000000E+00   0.00000000000000E+00   0.00000000000000E+00
      0.00000000000000E+00   7.16220747617274E-16
      8.42444444444445E-01
      0.00000000000000E+00   0.00000000000000E+00   0.00000000000000E+00   0.00000000000000E+00  -3.67158946755024E-19
     -1.82202645139883E-15  -1.82239361034559E-15  -6.25442399454401E-15   0.00000000000000E+00   0.00000000000000E+00
      0.00000000000000E+00   0.00000000000000E+00  -1.07885073900945E-16   2.47149688913977E-27  -1.07885073898473E-16
      1.48622053257830E-15   2.52733333333333E+00   2.52733333333333E+00   0.00000000000000E+00   0.00000000000000E+00
      1.93024446108720E-15   3.42231568643456E-20   1.93027868424406E-15   4.05877812689664E-15   1.00000000000000E+00
      1.00000000000000E+00   0.00000000000000E+00   0.00000000000000E+00   0.00000000000000E+00   0.00000000000000E+00
      0.00000000000000E+00   7.09425335069061E-16
      8.67444444444445E-01
      0.00000000000000E+00   0.00000000000000E+00   0.00000000000000E+00   0.00000000000000E+00  -1.58177460918963E-18