DF-ISE text

Info {
  version   = 1.0
  type      = xyplot
  datasets  = [
    "time"
    "substrate OuterVoltage" "substrate InnerVoltage" "substrate QuasiFermiPotential" "substrate DisplacementCurrent" "substrate eCurrent"
    "substrate hCurrent" "substrate TotalCurrent" "substrate Charge" "source OuterVoltage" "source InnerVoltage"
    "source QuasiFermiPotential" "source DisplacementCurrent" "source eCurrent" "source hCurrent" "source TotalCurrent"
    "source Charge" "drain OuterVoltage" "drain InnerVoltage" "drain QuasiFermiPotential" "drain DisplacementCurrent"
    "drain eCurrent" "drain hCurrent" "drain TotalCurrent" "drain Charge" "gate OuterVoltage"
    "gate InnerVoltage" "gate QuasiFermiPotential" "gate DisplacementCurrent" "gate eCurrent" "gate hCurrent"
    "gate TotalCurrent" "gate Charge" ]
  functions = [
    Time
    OuterVoltage InnerVoltage QuasiFermiPotential DisplacementCurrent eCurrent
    hCurrent TotalCurrent Charge OuterVoltage InnerVoltage
    QuasiFermiPotential DisplacementCurrent eCurrent hCurrent TotalCurrent
    Charge OuterVoltage InnerVoltage QuasiFermiPotential DisplacementCurrent
    eCurrent hCurrent TotalCurrent Charge OuterVoltage
    InnerVoltage QuasiFermiPotential DisplacementCurrent eCurrent hCurrent
    TotalCurrent Charge ]
}

Data {
      0.00000000000000E+00
      0.00000000000000E+00   0.00000000000000E+00   0.00000000000000E+00   0.00000000000000E+00   1.25623457611193E-18
      8.71335736447121E-26   1.25623466324550E-18  -5.95154544007400E-15   0.00000000000000E+00   0.00000000000000E+00
      0.00000000000000E+00   0.00000000000000E+00   1.80231040993040E-18  -4.77726530283112E-26   1.80231036215775E-18
      2.27270904970643E-15   0.00000000000000E+00   0.00000000000000E+00   0.00000000000000E+00   0.00000000000000E+00
     -3.05854498604273E-18  -3.93605235948131E-26  -3.05854502540325E-18   2.27270904970643E-15   1.00000000000000E+00
      1.00000000000000E+00   0.00000000000000E+00   0.00000000000000E+00   0.00000000000000E+00   0.00000000000000E+00
      0.00000000000000E+00   1.40612734066115E-15
      1.00000000000000E-02
      0.00000000000000E+00   0.00000000000000E+00   0.00000000000000E+00   0.00000000000000E+00   1.42054636269781E-16
     -4.19133787937473E-17   1.00141257476033E-16  -6.00361955440311E-15   0.00000000000000E+00   0.00000000000000E+00
      0.00000000000000E+00   0.00000000000000E+00  -4.46026709467349E-17   3.34155825454557E-26  -4.46026709133193E-17
      2.27270904970641E-15   3.00000000000000E-02   3.00000000000000E-02   0.00000000000000E+00   0.00000000000000E+00
     -5.55731624549640E-17   3.45758922498143E-20  -5.55385865627142E-17   2.32737085319400E-15   1.00000000000000E+00
      1.00000000000000E+00   0.00000000000000E+00   0.00000000000000E+00   0.00000000000000E+00   0.00000000000000E+00
      0.00000000000000E+00   1.40353965150270E-15
      2.33333333333333E-02
      0.00000000000000E+00   0.00000000000000E+00   0.00000000000000E+00   0.00000000000000E+00   3.77332728297331E-18
     -8.87424005744099E-17  -8.49690732914365E-17  -6.07269415377236E-15   0.00000000000000E+00   0.00000000000000E+00
      0.00000000000000E+00   0.00000000000000E+00  -6.12909596656151E-17   7.03826245222425E-26  -6.12909595952325E-17
      2.27270904970639E-15   7.00000000000000E-02   7.00000000000000E-02   0.00000000000000E+00   0.00000000000000E+00
      1.46242619780822E-16   1.74131058465428E-20   1.46260032886669E-16   2.39978470036950E-15   1.00000000000000E+00
      1.00000000000000E+00   0.00000000000000E+00   0.00000000000000E+00   0.00000000000000E+00   0.00000000000000E+00
      0.00000000000000E+00   1.40020040369646E-15
      4.24444444444445E-02
      0.00000000000000E+00   0.00000000000000E+00   0.00000000000000E+00   0.00000000000000E+00  -1.20269374810492E-18
     -1.62166935875351E-16  -1.63369629623456E-16  -6.17106289978367E-15   0.00000000000000E+00   0.00000000000000E+00
      0.00000000000000E+00   0.00000000000000E+00  -6.16740872634295E-17  -3.24312243261032E-26  -6.16740872958608E-17
      2.27270904970636E-15   1.27333333333333E-01   1.27333333333333E-01   0.00000000000000E+00   0.00000000000000E+00
      2.24980334416088E-16   6.33825032285225E-20   2.25043716919317E-16   2.50276510866300E-15   1.00000000000000E+00
      1.00000000000000E+00   0.00000000000000E+00   0.00000000000000E+00   0.00000000000000E+00   0.00000000000000E+00
      0.00000000000000E+00   1.39558874141430E-15
      6.74444444444444E-02
      0.00000000000000E+00   0.00000000000000E+00   0.00000000000000E+00   0.00000000000000E+00  -1.32621259050939E-18
     -2.78003514264563E-16  -2.79329726855072E-16  -6.29864235479192E-15   0.00000000000000E+00   0.00000000000000E+00
      0.00000000000000E+00   0.00000000000000E+00  -5.96485397701733E-17  -2.45710908063522E-26  -5.96485397947444E-17
      2.27270904970631E-15   2.02333333333333E-01   2.02333333333333E-01   0.00000000000000E+00   0.00000000000000E+00
      3.38923753437494E-16   5.45132123231117E-20   3.38978266649817E-16   2.63618475541854E-15   1.00000000000000E+00
      1.00000000000000E+00   0.00000000000000E+00   0.00000000000000E+00   0.00000000000000E+00   0.00000000000000E+00
      0.00000000000000E+00   1.38974854966708E-15
      9.24444444444444E-02
      0.00000000000000E+00   0.00000000000000E+00   0.00000000000000E+00   0.00000000000000E+00   1.48807934095655E-18
     -4.11192783779102E-16  -4.09704704438145E-16  -6.42491177027291E-15   0.00000000000000E+00   0.00000000000000E+00
      0.00000000000000E+00   0.00000000000000E+00  -6.24669086623836E-17   2.03793749550176E-26  -6.24669086420042E-17
      2.27270904970625E-15   2.77333333333333E-01   2.77333333333333E-01   0.00000000000000E+00   0.00000000000000E+00
      4.72120657338849E-16   5.09557413003632E-20   4.72171613080149E-16   2.76817928456899E-15   1.00000000000000E+00
      1.00000000000000E+00   0.00000000000000E+00   0.00000000000000E+00   0.00000000000000E+00   0.00000000000000E+00
      0.00000000000000E+00   1.38402343599768E-15
      1.17444444444444E-01
      0.00000000000000E+00   0.00000000000000E+00   0.00000000000000E+00   0.00000000000000E+00  -5.51727794372055E-19
     -5.58841161062950E-16  -5.59392888857322E-16  -6.54971418534230E-15   0.00000000000000E+00   0.00000000000000E+00
      0.00000000000000E+00   0.00000000000000E+00  -6.00271431812261E-17   1.52566688681268E-26  -6.00271431659694E-17
      2.27270904970619E-15   3.52333333333333E-01   3.52333333333333E-01   0.00000000000000E+00   0.00000000000000E+00
      6.19357110607586E-16   6.29214157044772E-20   6.19420032023291E-16   2.89862986275371E-15   1.00000000000000E+00
      1.00000000000000E+00   0.00000000000000E+00   0.00000000000000E+00   0.00000000000000E+00   0.00000000000000E+00
      0.00000000000000E+00   1.37837527288239E-15
      1.42444444444444E-01
      0.00000000000000E+00   0.00000000000000E+00   0.00000000000000E+00   0.00000000000000E+00   1.62264709820741E-18
     -7.22982686575850E-16  -7.21360039477643E-16  -6.67277834138400E-15   0.00000000000000E+00   0.00000000000000E+00
      0.00000000000000E+00   0.00000000000000E+00  -6.24991291024829E-17  -4.01747930267349E-26  -6.24991291426577E-17
      2.27270904970612E-15   4.27333333333333E-01   4.27333333333333E-01   0.00000000000000E+00   0.00000000000000E+00
      7.83806353776330E-16   5.28148439703206E-20   7.83859168620300E-16   3.02726177370151E-15   1.00000000000000E+00
      1.00000000000000E+00   0.00000000000000E+00   0.00000000000000E+00   0.00000000000000E+00   0.00000000000000E+00
      0.00000000000000E+00   1.37280751797636E-15
      1.67444444444444E-01
      0.00000000000000E+00   0.00000000000000E+00   0.00000000000000E+00   0.00000000000000E+00  -2.37060155061009E-18
     -9.18168687893214E-16  -9.20539289443824E-16  -6.79369400424591E-15   0.00000000000000E+00   0.00000000000000E+00
      0.00000000000000E+00   0.00000000000000E+00  -5.89307873502456E-17  -4.83740210414841E-26  -5.89307873986196E-17
      2.27270904970604E-15   5.02333333333333E-01   5.02333333333333E-01   0.00000000000000E+00   0.00000000000000E+00
      9.79419021392537E-16   5.10554499052621E-20   9.79470076842442E-16   3.15364340514855E-15   1.00000000000000E+00
      1.00000000000000E+00   0.00000000000000E+00   0.00000000000000E+00   0.00000000000000E+00   0.00000000000000E+00
      0.00000000000000E+00   1.36734154939131E-15
      1.92444444444444E-01
      0.00000000000000E+00   0.00000000000000E+00   0.00000000000000E+00   0.00000000000000E+00   2.80304854221145E-17
     -1.15695763015229E-15  -1.12892714473018E-15  -6.91190090574927E-15   0.00000000000000E+00   0.00000000000000E+00
      0.00000000000000E+00   0.00000000000000E+00  -6.04634007970218E-17   5.97091386879719E-26  -6.04634007373126E-17
      2.27270904970594E-15   5.77333333333333E-01   5.77333333333333E-01   0.00000000000000E+00   0.00000000000000E+00
      1.18902918269314E-15   3.61362774346781E-19   1.18939054546749E-15   3.27718851594303E-15   1.00000000000000E+00
      1.00000000000000E+00   0.00000000000000E+00   0.00000000000000E+00   0.00000000000000E+00   0.00000000000000E+00
      0.00000000000000E+00   1.36200334010030E-15
      2.17444444444444E-01
      0.00000000000000E+00   0.00000000000000E+00   0.00000000000000E+00   0.00000000000000E+00  -7.58278452947206E-19
     -1.41170383495943E-15  -1.41246211341237E-15  -7.02672907434742E-15   0.00000000000000E+00   0.00000000000000E+00
      0.00000000000000E+00   0.00000000000000E+00  -6.08425066269284E-17  -9.99251693040416E-26  -6.08425067268536E-17
      2.27270904970583E-15   6.52333333333333E-01   6.52333333333333E-01   0.00000000000000E+00   0.00000000000000E+00
      1.47334986594907E-15  -4.52458098489862E-20   1.47330462013923E-15   3.39721473252858E-15   1.00000000000000E+00
      1.00000000000000E+00   0.00000000000000E+00   0.00000000000000E+00   0.00000000000000E+00   0.00000000000000E+00
      0.00000000000000E+00   1.35680529211300E-15
      2.42444444444444E-01
      0.00000000000000E+00   0.00000000000000E+00   0.00000000000000E+00   0.00000000000000E+00   1.69062811948670E-18
     -1.60914363795821E-15  -1.60745300983872E-15  -7.13755758266698E-15   0.00000000000000E+00   0.00000000000000E+00
      0.00000000000000E+00   0.00000000000000E+00  -6.31440840697811E-17   2.46196942492425E-26  -6.31440840451614E-17
      2.27270904970575E-15   7.27333333333333E-01   7.27333333333333E-01   0.00000000000000E+00   0.00000000000000E+00
      1.67054341829506E-15   5.36755888276453E-20   1.67059709388389E-15   3.51312075359995E-15   1.00000000000000E+00
      1.00000000000000E+00   0.00000000000000E+00   0.00000000000000E+00   0.00000000000000E+00   0.00000000000000E+00
      0.00000000000000E+00   1.35172777936128E-15
      2.67444444444444E-01
      0.00000000000000E+00   0.00000000000000E+00   0.00000000000000E+00   0.00000000000000E+00  -2.32104279891610E-19
     -1.72723000694547E-15  -1.72746211122536E-15  -7.24411030335460E-15   0.00000000000000E+00   0.00000000000000E+00
      0.00000000000000E+00   0.00000000000000E+00  -6.05931098120533E-17  -6.95066690169720E-26  -6.05931098815600E-17
      2.27270904970570E-15   8.02333333333333E-01   8.02333333333333E-01   0.00000000000000E+00   0.00000000000000E+00
      1.78801774369522E-15   3.74774116934259E-20   1.78805522110692E-15   3.62467479044762E-15   1.00000000000000E+00
      1.00000000000000E+00   0.00000000000000E+00   0.00000000000000E+00   0.00000000000000E+00   0.00000000000000E+00
      0.00000000000000E+00   1.34672646320129E-15
      2.92444444444444E-01
      0.00000000000000E+00   0.00000000000000E+00   0.00000000000000E+00   0.00000000000000E+00   2.77781489019043E-18
     -1.79994172748329E-15  -1.79716391259310E-15  -7.34673846291037E-15   0.00000000000000E+00   0.00000000000000E+00
      0.00000000000000E+00   0.00000000000000E+00  -6.43871455134659E-17   1.96141009086878E-26  -6.43871454938518E-17
      2.27270904970567E-15   8.77333333333333E-01   8.77333333333334E-01   0.00000000000000E+00   0.00000000000000E+00
      1.86145695700555E-15   9.41010814065109E-20   1.86155105808695E-15   3.73226938288065E-15   1.00000000000000E+00
      1.00000000000000E+00   0.00000000000000E+00   0.00000000000000E+00   0.00000000000000E+00   0.00000000000000E+00
      0.00000000000000E+00   1.34176003032405E-15
      3.17444444444444E-01
      0.00000000000000E+00   0.00000000000000E+00   0.00000000000000E+00   0.00000000000000E+00   1.71229524395556E-18
     -1.84394588009917E-15  -1.84223358485521E-15  -7.44637313490082E-15   0.00000000000000E+00   0.00000000000000E+00
      0.00000000000000E+00   0.00000000000000E+00  -6.34096009445656E-17  -1.82776741667006E-26  -6.34096009628432E-17
      2.27270904970565E-15   9.52333333333333E-01   9.52333333333333E-01   0.00000000000000E+00   0.00000000000000E+00
      1.90558911301915E-15   5.40727988998905E-20   1.90564318581805E-15   3.83686040831266E-15   1.00000000000000E+00
      1.00000000000000E+00   0.00000000000000E+00   0.00000000000000E+00   0.00000000000000E+00   0.00000000000000E+00
      0.00000000000000E+00   1.33680367688253E-15
      3.42444444444444E-01
      0.00000000000000E+00   0.00000000000000E+00   0.00000000000000E+00   0.00000000000000E+00   1.07846170676116E-18
     -1.86935247115131E-15  -1.86827400944455E-15  -7.54407910985892E-15   0.00000000000000E+00   0.00000000000000E+00
      0.00000000000000E+00   0.00000000000000E+00  -6.28732125402469E-17   1.80653344659958E-27  -6.28732125384404E-17
      2.27270904970564E-15   1.02733333333333E+00   1.02733333333333E+00   0.00000000000000E+00   0.00000000000000E+00
      1.93108400826100E-15   6.32137220009825E-20   1.93114722198300E-15   3.93952441757615E-15   1.00000000000000E+00
      1.00000000000000E+00   0.00000000000000E+00   0.00000000000000E+00   0.00000000000000E+00   0.00000000000000E+00
      0.00000000000000E+00   1.33184564257714E-15
      3.67444444444445E-01
      0.00000000000000E+00   0.00000000000000E+00   0.00000000000000E+00   0.00000000000000E+00  -8.15087797847472E-20
     -1.88752930389301E-15  -1.88761081267280E-15  -7.64064617710673E-15   0.00000000000000E+00   0.00000000000000E+00
      0.00000000000000E+00   0.00000000000000E+00  -6.17865640352301E-17  -2.93602043376001E-27  -6.17865640381661E-17
      2.27270904970563E-15   1.10233333333333E+00   1.10233333333333E+00   0.00000000000000E+00   0.00000000000000E+00
      1.94934216321676E-15   5.52134942013538E-20   1.94939737671096E-15   4.04105620880513E-15   1.00000000000000E+00
      1.00000000000000E+00   0.00000000000000E+00   0.00000000000000E+00   0.00000000000000E+00   0.00000000000000E+00
      0.00000000000000E+00   1.32688091859597E-15
      3.92444444444445E-01
      0.00000000000000E+00   0.00000000000000E+00   0.00000000000000E+00   0.00000000000000E+00  -4.76811055436828E-19
     -1.90524411504168E-15  -1.90572092609712E-15  -7.73651773841761E-15   0.00000000000000E+00   0.00000000000000E+00
      0.00000000000000E+00   0.00000000000000E+00  -6.14708948246248E-17   2.07149031099474E-26  -6.14708948039099E-17
      2.27270904970562E-15   1.17733333333333E+00   1.17733333333333E+00   0.00000000000000E+00   0.00000000000000E+00
      1.96714069085085E-15   5.11300501787574E-20   1.96719182090103E-15   4.14190126655915E-15   1.00000000000000E+00
      1.00000000000000E+00   0.00000000000000E+00   0.00000000000000E+00   0.00000000000000E+00   0.00000000000000E+00
      0.00000000000000E+00   1.32190742215284E-15
      4.17444444444445E-01
      0.00000000000000E+00   0.00000000000000E+00   0.00000000000000E+00   0.00000000000000E+00  -9.02921322919582E-19
     -1.92324122419203E-15  -1.92414414551494E-15  -7.83190711875754E-15   0.00000000000000E+00   0.00000000000000E+00
      0.00000000000000E+00   0.00000000000000E+00  -6.11276746504113E-17   2.28425278562563E-26  -6.11276746275687E-17
      2.27270904970561E-15   1.25233333333333E+00   1.25233333333333E+00   0.00000000000000E+00   0.00000000000000E+00
      1.98524628846491E-15   2.55316776053443E-20   1.98527182014251E-15   4.24227382468679E-15   1.00000000000000E+00
      1.00000000000000E+00   0.00000000000000E+00   0.00000000000000E+00   0.00000000000000E+00   0.00000000000000E+00
      0.00000000000000E+00   1.31692424436513E-15
      4.42444444444445E-01
      0.00000000000000E+00   0.00000000000000E+00   0.00000000000000E+00   0.00000000000000E+00  -1.33963672933658E-18
     -1.94048356038508E-15  -1.94182319711441E-15  -7.92691148730621E-15   0.00000000000000E+00   0.00000000000000E+00
      0.00000000000000E+00   0.00000000000000E+00  -6.07722532674087E-17   5.41935461844290E-26  -6.07722532132152E-17
      2.27270904970560E-15   1.32733333333333E+00   1.32733333333333E+00   0.00000000000000E+00   0.00000000000000E+00
      2.00249588756021E-15   9.95627674232363E-20   2.00259545032763E-15   4.34227149742630E-15   1.00000000000000E+00
      1.00000000000000E+00   0.00000000000000E+00   0.00000000000000E+00   0.00000000000000E+00   0.00000000000000E+00
      0.00000000000000E+00   1.31193094017429E-15
      4.67444444444445E-01
      0.00000000000000E+00   0.00000000000000E+00   0.00000000000000E+00   0.00000000000000E+00   2.62777370520638E-18
     -1.95674970529797E-15  -1.95412193159277E-15  -8.02157373701004E-15   0.00000000000000E+00   0.00000000000000E+00
      0.00000000000000E+00   0.00000000000000E+00  -6.45042295458564E-17  -1.29177104598504E-26  -6.45042295587741E-17
      2.27270904970565E-15   1.40233333333333E+00   1.40233333333333E+00   0.00000000000000E+00   0.00000000000000E+00
      2.02029591528574E-15  -1.66975413420234E-18   2.01862616115154E-15   4.44193741927510E-15   1.00000000000000E+00
      1.00000000000000E+00   0.00000000000000E+00   0.00000000000000E+00   0.00000000000000E+00   0.00000000000000E+00
      0.00000000000000E+00   1.30692726802930E-15
      4.92444444444445E-01
      0.00000000000000E+00   0.00000000000000E+00   0.00000000000000E+00   0.00000000000000E+00  -7.26237931190979E-19
     -1.98033411776214E-15  -1.98106035569333E-15  -8.11590851634033E-15   0.00000000000000E+00   0.00000000000000E+00
      0.00000000000000E+00   0.00000000000000E+00  -6.19354471093605E-17   1.76793444617365E-26  -6.19354470916812E-17
      2.27270904970517E-15   1.47733333333333E+00   1.47733333333333E+00   0.00000000000000E+00   0.00000000000000E+00
      2.04276902084318E-15   2.26781941837185E-19   2.04299580278501E-15   4.54128634694350E-15   1.00000000000000E+00
      1.00000000000000E+00   0.00000000000000E+00   0.00000000000000E+00   0.00000000000000E+00   0.00000000000000E+00
      0.00000000000000E+00   1.30191311969165E-15
      5.17444444444445E-01
      0.00000000000000E+00   0.00000000000000E+00   0.00000000000000E+00   0.00000000000000E+00   1.20224229579936E-18
     -2.00817776376783E-15  -2.00697552147203E-15  -8.20991341185724E-15   0.00000000000000E+00   0.00000000000000E+00
      0.00000000000000E+00   0.00000000000000E+00  -6.34431599189627E-17   5.96396677469010E-26  -6.34431598593231E-17
      2.27270904970564E-15   1.55233333333333E+00   1.55233333333333E+00   0.00000000000000E+00   0.00000000000000E+00
      2.07056928347523E-15  -1.50602143876617E-19   2.07041868133135E-15   4.64031582961917E-15   1.00000000000000E+00
      1.00000000000000E+00   0.00000000000000E+00   0.00000000000000E+00   0.00000000000000E+00   0.00000000000000E+00
      0.00000000000000E+00   1.29688853253243E-15
      5.42444444444445E-01
      0.00000000000000E+00   0.00000000000000E+00   0.00000000000000E+00   0.00000000000000E+00  -9.70935537800406E-19
     -2.04621596040444E-15  -2.04718689594224E-15  -8.30357508809664E-15   0.00000000000000E+00   0.00000000000000E+00
      0.00000000000000E+00   0.00000000000000E+00  -6.13875684012244E-17  -3.40716421144350E-26  -6.13875684352960E-17
      2.27270904970560E-15   1.62733333333333E+00   1.62733333333333E+00   0.00000000000000E+00   0.00000000000000E+00
      2.10856066039268E-15   1.38039848560456E-20   2.10857446437754E-15   4.73901231456976E-15   1.00000000000000E+00
      1.00000000000000E+00   0.00000000000000E+00   0.00000000000000E+00   0.00000000000000E+00   0.00000000000000E+00
      0.00000000000000E+00   1.29185372382128E-15
      5.67444444444445E-01
      0.00000000000000E+00   0.00000000000000E+00   0.00000000000000E+00   0.00000000000000E+00   1.24390387595453E-18
     -2.09953726024356E-15  -2.09829335636761E-15  -8.39687219941251E-15   0.00000000000000E+00   0.00000000000000E+00
      0.00000000000000E+00   0.00000000000000E+00  -6.37540282408339E-17  -9.14139607665280E-26  -6.37540283322479E-17
      2.27270904970537E-15   1.70233333333333E+00   1.70233333333333E+00   0.00000000000000E+00   0.00000000000000E+00
      2.16199631379102E-15   5.10709088358531E-20   2.16204738469986E-15   4.83735405228587E-15   1.00000000000000E+00
      1.00000000000000E+00   0.00000000000000E+00   0.00000000000000E+00   0.00000000000000E+00   0.00000000000000E+00
      0.00000000000000E+00   1.28680909742128E-15
      5.92444444444445E-01
      0.00000000000000E+00   0.00000000000000E+00   0.00000000000000E+00   0.00000000000000E+00   5.00754184557493E-18
     -2.18017522667706E-15  -2.17516768483149E-15  -8.48977494990663E-15   0.00000000000000E+00   0.00000000000000E+00
      0.00000000000000E+00   0.00000000000000E+00  -6.75961006615934E-17  -4.62679548294984E-26  -6.75961007078614E-17
      2.27270904970543E-15   1.77733333333333E+00   1.77733333333333E+00   0.00000000000000E+00   0.00000000000000E+00
      2.24270791823650E-15   5.58673028452493E-20   2.24276378553934E-15   4.93531070461893E-15   1.00000000000000E+00
      1.00000000000000E+00   0.00000000000000E+00   0.00000000000000E+00   0.00000000000000E+00   0.00000000000000E+00
      0.00000000000000E+00   1.28175519558226E-15
      6.17444444444445E-01
      0.00000000000000E+00   0.00000000000000E+00   0.00000000000000E+00   0.00000000000000E+00  -5.35001415034550E-19
     -2.30179708592400E-15  -2.30233208733903E-15  -8.58224210252166E-15   0.00000000000000E+00   0.00000000000000E+00
      0.00000000000000E+00   0.00000000000000E+00  -6.21079056488613E-17   1.20373930135874E-26  -6.21079056368239E-17
      2.27270904970560E-15   1.85233333333333E+00   1.85233333333333E+00   0.00000000000000E+00   0.00000000000000E+00
      2.36443108157556E-15   8.91140029007446E-21   2.36443999297585E-15   5.03284044259600E-15   1.00000000000000E+00
      1.00000000000000E+00   0.00000000000000E+00   0.00000000000000E+00   0.00000000000000E+00   0.00000000000000E+00
      0.00000000000000E+00   1.27669261022007E-15
      6.42444444444445E-01
      0.00000000000000E+00   0.00000000000000E+00   0.00000000000000E+00   0.00000000000000E+00  -7.25389595451276E-19
     -2.46091832495536E-15  -2.46164371455081E-15  -8.67421690708242E-15   0.00000000000000E+00   0.00000000000000E+00
      0.00000000000000E+00   0.00000000000000E+00  -6.19356781989336E-17   2.37631392887321E-26  -6.19356781751704E-17
      2.27270904970558E-15   1.92733333333333E+00   1.92733333333333E+00   0.00000000000000E+00   0.00000000000000E+00
      2.52368867416629E-15  -1.09281440313197E-19   2.52357939272597E-15   5.12988596165237E-15   1.00000000000000E+00
      1.00000000000000E+00   0.00000000000000E+00   0.00000000000000E+00   0.00000000000000E+00   0.00000000000000E+00
      0.00000000000000E+00   1.27162189572447E-15
      6.67444444444445E-01
      0.00000000000000E+00   0.00000000000000E+00   0.00000000000000E+00   0.00000000000000E+00  -9.69898964651122E-19
     -2.62353274342477E-15  -2.62450264238942E-15  -8.76562275300555E-15   0.00000000000000E+00   0.00000000000000E+00
      0.00000000000000E+00   0.00000000000000E+00  -6.18485383368931E-17   2.42387814375189E-26  -6.18485383126543E-17
      2.27270904970529E-15   2.00233333333333E+00   2.00233333333333E+00   0.00000000000000E+00   0.00000000000000E+00
      2.68631002094955E-15   4.11597525305263E-20   2.68635118070208E-15   5.22637018717963E-15   1.00000000000000E+00
      1.00000000000000E+00   0.00000000000000E+00   0.00000000000000E+00   0.00000000000000E+00   0.00000000000000E+00
      0.00000000000000E+00   1.26654351612063E-15
      6.92444444444445E-01
      0.00000000000000E+00   0.00000000000000E+00   0.00000000000000E+00   0.00000000000000E+00   1.09243378764550E-18
     -2.74834588071147E-15  -2.74725344692383E-15  -8.85635810169136E-15   0.00000000000000E+00   0.00000000000000E+00
      0.00000000000000E+00   0.00000000000000E+00  -6.35003303722348E-17   2.59701782964515E-27  -6.35003303696378E-17
      2.27270904970558E-15   2.07733333333333E+00   2.07733333333333E+00   0.00000000000000E+00   0.00000000000000E+00
      2.80926686843921E-15   1.48690885425834E-18   2.81075377729347E-15   5.32219122035529E-15   1.00000000000000E+00
      1.00000000000000E+00   0.00000000000000E+00   0.00000000000000E+00   0.00000000000000E+00   0.00000000000000E+00
      0.00000000000000E+00   1.26145783163048E-15
      7.17444444444445E-01
      0.00000000000000E+00   0.00000000000000E+00   0.00000000000000E+00   0.00000000000000E+00   7.75083077390029E-19
     -2.81686339587499E-15  -2.81608831279760E-15  -8.94628951784524E-15   0.00000000000000E+00   0.00000000000000E+00
      0.00000000000000E+00   0.00000000000000E+00  -6.32901395706164E-17  -3.74625734403887E-28  -6.32901395709910E-17
      2.27270904970577E-15   2.15233333333333E+00   2.15233333333333E+00   0.00000000000000E+00   0.00000000000000E+00
      2.88128482032003E-15  -1.90636795143601E-18   2.87937845236859E-15   5.41721535838132E-15   1.00000000000000E+00
      1.00000000000000E+00   0.00000000000000E+00   0.00000000000000E+00   0.00000000000000E+00   0.00000000000000E+00
      0.00000000000000E+00   1.25636510975815E-15
      7.42444444444445E-01
      0.00000000000000E+00   0.00000000000000E+00   0.00000000000000E+00   0.00000000000000E+00   7.04150414820116E-19
     -2.85422064957334E-15  -2.85351649915851E-15  -9.03524236699066E-15   0.00000000000000E+00   0.00000000000000E+00
      0.00000000000000E+00   0.00000000000000E+00  -6.37493250924032E-17  -8.77649493474922E-27  -6.37493251011797E-17
      2.27270904970588E-15   2.22733333333333E+00   2.22733333333333E+00   0.00000000000000E+00   0.00000000000000E+00
      2.91721200104879E-15   5.38232109046278E-20   2.91726582425969E-15   5.51126777512292E-15   1.00000000000000E+00
      1.00000000000000E+00   0.00000000000000E+00   0.00000000000000E+00   0.00000000000000E+00   0.00000000000000E+00
      0.00000000000000E+00   1.25126554216185E-15
      7.67444444444445E-01
      0.00000000000000E+00   0.00000000000000E+00   0.00000000000000E+00   0.00000000000000E+00   8.65605609007211E-19
     -2.87088142682105E-15  -2.87001582121204E-15  -9.12299213627352E-15   0.00000000000000E+00   0.00000000000000E+00
      0.00000000000000E+00   0.00000000000000E+00  -6.39851109513296E-17   7.65016972800189E-26  -6.39851108748279E-17
      2.27270904970520E-15   2.30233333333333E+00   2.30233333333333E+00   0.00000000000000E+00   0.00000000000000E+00
      2.93395159322490E-15   4.93388619746473E-20   2.93400093208687E-15   5.60412382970594E-15   1.00000000000000E+00
      1.00000000000000E+00   0.00000000000000E+00   0.00000000000000E+00   0.00000000000000E+00   0.00000000000000E+00
      0.00000000000000E+00   1.24615925686238E-15
      7.92444444444445E-01
      0.00000000000000E+00   0.00000000000000E+00   0.00000000000000E+00   0.00000000000000E+00   9.53485192763059E-20
     -2.87965329016774E-15  -2.87955794164846E-15  -9.20926633780377E-15   0.00000000000000E+00   0.00000000000000E+00
      0.00000000000000E+00   0.00000000000000E+00  -6.32883605315039E-17  -7.47978249260366E-26  -6.32883606063017E-17
      2.27270904970520E-15   2.37733333333333E+00   2.37733333333333E+00   0.00000000000000E+00   0.00000000000000E+00
      2.94289674482717E-15  -5.04425724040850E-20   2.94284630225477E-15   5.69551096142685E-15   1.00000000000000E+00
      1.00000000000000E+00   0.00000000000000E+00   0.00000000000000E+00   0.00000000000000E+00   0.00000000000000E+00
      0.00000000000000E+00   1.24104632667173E-15
      8.17444444444445E-01
      0.00000000000000E+00   0.00000000000000E+00   0.00000000000000E+00   0.00000000000000E+00  -5.26744804796361E-19
     -2.88632161930833E-15  -2.88684836411312E-15  -9.29377641546998E-15   0.00000000000000E+00   0.00000000000000E+00
      0.00000000000000E+00   0.00000000000000E+00  -6.27392156002434E-17  -6.83981368629292E-26  -6.27392156686416E-17
      2.27270904970520E-15   2.45233333333333E+00   2.45233333333333E+00   0.00000000000000E+00   0.00000000000000E+00
      2.94956283807771E-15   2.47417040594672E-20   2.94958757978177E-15   5.78514058637429E-15   1.00000000000000E+00
      1.00000000000000E+00   0.00000000000000E+00   0.00000000000000E+00   0.00000000000000E+00   0.00000000000000E+00
      0.00000000000000E+00   1.23592677939049E-15
      8.42444444444445E-01
      0.00000000000000E+00   0.00000000000000E+00   0.00000000000000E+00   0.00000000000000E+00  -1.09822802771954E-18
     -2.89342448163912E-15  -2.89452270966684E-15  -9.37630018671646E-15   0.00000000000000E+00   0.00000000000000E+00
      0.00000000000000E+00   0.00000000000000E+00  -6.22401349638361E-17   9.00562743073636E-26  -6.22401348737799E-17
      2.27270904970519E-15   2.52733333333333E+00   2.52733333333333E+00   0.00000000000000E+00   0.00000000000000E+00
      2.95670192208721E-15   6.09224534027085E-20   2.95676284454061E-15   5.87279052476746E-15   1.00000000000000E+00
      1.00000000000000E+00   0.00000000000000E+00   0.00000000000000E+00   0.00000000000000E+00   0.00000000000000E+00
      0.00000000000000E+00   1.23080061224380E-15
      8.67444444444445E-01
      0.00000000000000E+00   0.00000000000000E+00   0.00000000000000E+00   0.00000000000000E+00  -7.67702807855114E-19