DF-ISE text

Info {
  version   = 1.0
  type      = xyplot
  datasets  = [
    "time"
    "substrate OuterVoltage" "substrate InnerVoltage" "substrate QuasiFermiPotential" "substrate DisplacementCurrent" "substrate eCurrent"
    "substrate hCurrent" "substrate TotalCurrent" "substrate Charge" "source OuterVoltage" "source InnerVoltage"
    "source QuasiFermiPotential" "source DisplacementCurrent" "source eCurrent" "source hCurrent" "source TotalCurrent"
    "source Charge" "drain OuterVoltage" "drain InnerVoltage" "drain QuasiFermiPotential" "drain DisplacementCurrent"
    "drain eCurrent" "drain hCurrent" "drain TotalCurrent" "drain Charge" "gate OuterVoltage"
    "gate InnerVoltage" "gate QuasiFermiPotential" "gate DisplacementCurrent" "gate eCurrent" "gate hCurrent"
    "gate TotalCurrent" "gate Charge" ]
  functions = [
    Time
    OuterVoltage InnerVoltage QuasiFermiPotential DisplacementCurrent eCurrent
    hCurrent TotalCurrent Charge OuterVoltage InnerVoltage
    QuasiFermiPotential DisplacementCurrent eCurrent hCurrent TotalCurrent
    Charge OuterVoltage InnerVoltage QuasiFermiPotential DisplacementCurrent
    eCurrent hCurrent TotalCurrent Charge OuterVoltage
    InnerVoltage QuasiFermiPotential DisplacementCurrent eCurrent hCurrent
    TotalCurrent Charge ]
}

Data {
      0.00000000000000E+00
      0.00000000000000E+00   0.00000000000000E+00   0.00000000000000E+00   0.00000000000000E+00  -6.15925211615869E-18
     -1.20436314052335E-27  -6.15925211736305E-18  -6.84298228004778E-15   0.00000000000000E+00   0.00000000000000E+00
      0.00000000000000E+00   0.00000000000000E+00   3.24032721230260E-18   1.87206847327000E-27   3.24032721417467E-18
      1.88191115440347E-15   0.00000000000000E+00   0.00000000000000E+00   0.00000000000000E+00   0.00000000000000E+00
      2.91892490385654E-18  -6.68160145104655E-28   2.91892490318838E-18   1.88191115440347E-15   3.00000000000000E+00
      3.00000000000000E+00   0.00000000000000E+00   0.00000000000000E+00   0.00000000000000E+00   0.00000000000000E+00
      0.00000000000000E+00   3.07915997124083E-15
      1.00000000000000E-02
      0.00000000000000E+00   0.00000000000000E+00   0.00000000000000E+00   0.00000000000000E+00  -1.81196887138008E-17
     -5.36977520267286E-17  -7.18174407405294E-17  -6.87437295156289E-15   0.00000000000000E+00   0.00000000000000E+00
      0.00000000000000E+00   0.00000000000000E+00  -2.32275978201025E-06  -2.25654409053403E-25  -2.32275978201025E-06
      1.88188401181807E-15   3.00000000000000E-02   3.00000000000000E-02   0.00000000000000E+00   0.00000000000000E+00
      2.32275978208204E-06   3.07722430821607E-20   2.32275978208207E-06   1.92972107609659E-15   3.00000000000000E+00
      3.00000000000000E+00   0.00000000000000E+00   0.00000000000000E+00   0.00000000000000E+00   0.00000000000000E+00
      0.00000000000000E+00   3.06276786364822E-15
      2.33333333333333E-02
      0.00000000000000E+00   0.00000000000000E+00   0.00000000000000E+00   0.00000000000000E+00   4.21146150517249E-18
     -1.03476124280444E-16  -9.92646627752718E-17  -6.91712875934215E-15   0.00000000000000E+00   0.00000000000000E+00
      0.00000000000000E+00   0.00000000000000E+00  -4.74283964273321E-06  -4.57057547064152E-25  -4.74283964273321E-06
      1.88185498950383E-15   7.00000000000000E-02   7.00000000000000E-02   0.00000000000000E+00   0.00000000000000E+00
      4.74283964283245E-06   2.44720566931801E-20   4.74283964283248E-06   1.99307680050621E-15   3.00000000000000E+00
      3.00000000000000E+00   0.00000000000000E+00   0.00000000000000E+00   0.00000000000000E+00   0.00000000000000E+00
      0.00000000000000E+00   3.04219696933212E-15
      4.24444444444445E-02
      0.00000000000000E+00   0.00000000000000E+00   0.00000000000000E+00   0.00000000000000E+00  -1.06619079635812E-18
     -1.59437985249303E-16  -1.60504176045661E-16  -6.98102706812469E-15   0.00000000000000E+00   0.00000000000000E+00
      0.00000000000000E+00   0.00000000000000E+00  -7.02791656830966E-06  -6.80321849630378E-25  -7.02791656830966E-06
      1.88182682022998E-15   1.27333333333333E-01   1.27333333333333E-01   0.00000000000000E+00   0.00000000000000E+00
      7.02791656847013E-06   2.40166331403800E-20   7.02791656847016E-06   2.08318401598057E-15   3.00000000000000E+00
      3.00000000000000E+00   0.00000000000000E+00   0.00000000000000E+00   0.00000000000000E+00   0.00000000000000E+00
      0.00000000000000E+00   3.01601623191413E-15
      6.74444444444444E-02
      0.00000000000000E+00   0.00000000000000E+00   0.00000000000000E+00   0.00000000000000E+00  -4.58952026045476E-18
     -2.37772338792418E-16  -2.42361859052873E-16  -7.07082630705216E-15   0.00000000000000E+00   0.00000000000000E+00
      0.00000000000000E+00   0.00000000000000E+00  -8.42360695946396E-06  -8.14780053480223E-25  -8.42360695946396E-06
      1.88180922473036E-15   2.02333333333333E-01   2.02333333333333E-01   0.00000000000000E+00   0.00000000000000E+00
      8.42360695970629E-06   3.72303241051776E-20   8.42360695970633E-06   2.19991260295144E-15   3.00000000000000E+00
      3.00000000000000E+00   0.00000000000000E+00   0.00000000000000E+00   0.00000000000000E+00   0.00000000000000E+00
      0.00000000000000E+00   2.98910447937035E-15
      9.24444444444444E-02
      0.00000000000000E+00   0.00000000000000E+00   0.00000000000000E+00   0.00000000000000E+00  -1.14479002124373E-19
     -3.41401260026369E-16  -3.41515739028494E-16  -7.16693882868879E-15   0.00000000000000E+00   0.00000000000000E+00
      0.00000000000000E+00   0.00000000000000E+00  -8.85252505082120E-06  -8.58116866204167E-25  -8.85252505082120E-06
      1.88180375549023E-15   2.77333333333333E-01   2.77333333333333E-01   0.00000000000000E+00   0.00000000000000E+00
      8.85252505116267E-06   4.45675785599360E-20   8.85252505116271E-06   2.31540076671004E-15   3.00000000000000E+00
      3.00000000000000E+00   0.00000000000000E+00   0.00000000000000E+00   0.00000000000000E+00   0.00000000000000E+00
      0.00000000000000E+00   2.96973430648851E-15
      1.17444444444444E-01
      0.00000000000000E+00   0.00000000000000E+00   0.00000000000000E+00   0.00000000000000E+00  -4.31698033428303E-17
     -4.77227531955102E-16  -5.20397335297932E-16  -7.26567867530195E-15   0.00000000000000E+00   0.00000000000000E+00
      0.00000000000000E+00   0.00000000000000E+00  -9.00684763069433E-06  -8.73398260450198E-25  -9.00684763069433E-06
      1.88180178043401E-15   3.52333333333333E-01   3.52333333333333E-01   0.00000000000000E+00   0.00000000000000E+00
      9.00684763121469E-06   4.11981243616899E-20   9.00684763121473E-06   2.42959893227826E-15   3.00000000000000E+00
      3.00000000000000E+00   0.00000000000000E+00   0.00000000000000E+00   0.00000000000000E+00   0.00000000000000E+00
      0.00000000000000E+00   2.95427796258967E-15
      1.42444444444444E-01
      0.00000000000000E+00   0.00000000000000E+00   0.00000000000000E+00   0.00000000000000E+00  -6.65640278190511E-17
     -6.43670257896117E-16  -7.10234285715168E-16  -7.36460347649600E-15   0.00000000000000E+00   0.00000000000000E+00
      0.00000000000000E+00   0.00000000000000E+00  -9.10020381344770E-06  -8.81521392839855E-25  -9.10020381344770E-06
      1.88180058376506E-15   4.27333333333333E-01   4.27333333333333E-01   0.00000000000000E+00   0.00000000000000E+00
      9.10020381415790E-06   3.54707097647271E-20   9.10020381415793E-06   2.54231324281584E-15   3.00000000000000E+00
      3.00000000000000E+00   0.00000000000000E+00   0.00000000000000E+00   0.00000000000000E+00   0.00000000000000E+00
      0.00000000000000E+00   2.94048964991510E-15
      1.67444444444444E-01
      0.00000000000000E+00   0.00000000000000E+00   0.00000000000000E+00   0.00000000000000E+00  -2.36685370245866E-18
     -8.45739418552918E-16  -8.48106272255376E-16  -7.46281369333392E-15   0.00000000000000E+00   0.00000000000000E+00
      0.00000000000000E+00   0.00000000000000E+00  -9.16840724472252E-06  -8.85910658450034E-25  -9.16840724472252E-06
      1.88179970861570E-15   5.02333333333333E-01   5.02333333333333E-01   0.00000000000000E+00   0.00000000000000E+00
      9.16840724557059E-06   2.78436076736983E-20   9.16840724557062E-06   2.65322992302446E-15   3.00000000000000E+00
      3.00000000000000E+00   0.00000000000000E+00   0.00000000000000E+00   0.00000000000000E+00   0.00000000000000E+00
      0.00000000000000E+00   2.92778406169375E-15
      1.92444444444444E-01
      0.00000000000000E+00   0.00000000000000E+00   0.00000000000000E+00   0.00000000000000E+00  -3.08196445711020E-18
     -1.08849627944027E-15  -1.09157824389738E-15  -7.55950247648742E-15   0.00000000000000E+00   0.00000000000000E+00
      0.00000000000000E+00   0.00000000000000E+00  -9.22325437799628E-06  -8.92047897436908E-25  -9.22325437799628E-06
      1.88179900429701E-15   5.77333333333333E-01   5.77333333333333E-01   0.00000000000000E+00   0.00000000000000E+00
      9.22325437908740E-06   4.51374774711759E-19   9.22325437908786E-06   2.76187785503036E-15   3.00000000000000E+00
      3.00000000000000E+00   0.00000000000000E+00   0.00000000000000E+00   0.00000000000000E+00   0.00000000000000E+00
      0.00000000000000E+00   2.91582561716005E-15
      2.17444444444444E-01
      0.00000000000000E+00   0.00000000000000E+00   0.00000000000000E+00   0.00000000000000E+00   2.29741277502525E-15
     -1.32664876144409E-15   9.70764013581157E-16  -7.65385241364802E-15   0.00000000000000E+00   0.00000000000000E+00
      0.00000000000000E+00   0.00000000000000E+00  -9.27025180683205E-06  -8.96936065227618E-25  -9.27025180683205E-06
      1.88179840038942E-15   6.52333333333333E-01   6.52333333333333E-01   0.00000000000000E+00   0.00000000000000E+00
      9.27025180586129E-06  -3.84446572936557E-21   9.27025180586129E-06   2.86766089594137E-15   3.00000000000000E+00
      3.00000000000000E+00   0.00000000000000E+00   0.00000000000000E+00   0.00000000000000E+00   0.00000000000000E+00
      0.00000000000000E+00   2.90439311731723E-15
      2.42444444444444E-01
      0.00000000000000E+00   0.00000000000000E+00   0.00000000000000E+00   0.00000000000000E+00   2.96421063562543E-18
     -1.49362660238417E-15  -1.49066239174854E-15  -7.74515763644726E-15   0.00000000000000E+00   0.00000000000000E+00
      0.00000000000000E+00   0.00000000000000E+00  -9.31211828266855E-06  -9.03738776376944E-25  -9.31211828266855E-06
      1.88179786210944E-15   7.27333333333333E-01   7.27333333333333E-01   0.00000000000000E+00   0.00000000000000E+00
      9.31211828415915E-06   4.53373712256122E-20   9.31211828415920E-06   2.96999827141895E-15   3.00000000000000E+00
      3.00000000000000E+00   0.00000000000000E+00   0.00000000000000E+00   0.00000000000000E+00   0.00000000000000E+00
      0.00000000000000E+00   2.89336150291886E-15
      2.67444444444444E-01
      0.00000000000000E+00   0.00000000000000E+00   0.00000000000000E+00   0.00000000000000E+00   1.13140637458625E-13
     -1.58625135049283E-15   1.11554386108133E-13  -7.83315936431813E-15   0.00000000000000E+00   0.00000000000000E+00
      0.00000000000000E+00   0.00000000000000E+00  -9.34997627097522E-06  -9.04042287898772E-25  -9.34997627097522E-06
      1.88179737511979E-15   8.02333333333333E-01   8.02333333333333E-01   0.00000000000000E+00   0.00000000000000E+00
      9.34997615942082E-06   4.53259857862291E-22   9.34997615942082E-06   3.06864802886541E-15   3.00000000000000E+00
      3.00000000000000E+00   0.00000000000000E+00   0.00000000000000E+00   0.00000000000000E+00   0.00000000000000E+00
      0.00000000000000E+00   2.88271396033292E-15
      2.92444444444444E-01
      0.00000000000000E+00   0.00000000000000E+00   0.00000000000000E+00   0.00000000000000E+00   2.59268423286249E-18
     -1.63980987832261E-15  -1.63721719408975E-15  -7.91831028716415E-15   0.00000000000000E+00   0.00000000000000E+00
      0.00000000000000E+00   0.00000000000000E+00  -9.38423586501132E-06  -9.08302898994725E-25  -9.38423586501132E-06
      1.88179693421604E-15   8.77333333333333E-01   8.77333333333333E-01   0.00000000000000E+00   0.00000000000000E+00
      9.38423586664849E-06   4.35386230993055E-20   9.38423586664853E-06   3.16401373360661E-15   3.00000000000000E+00
      3.00000000000000E+00   0.00000000000000E+00   0.00000000000000E+00   0.00000000000000E+00   0.00000000000000E+00
      0.00000000000000E+00   2.87249961934149E-15
      3.17444444444444E-01
      0.00000000000000E+00   0.00000000000000E+00   0.00000000000000E+00   0.00000000000000E+00  -1.05871155667674E-18
     -1.67684763751017E-15  -1.67790634906684E-15  -8.00168341872802E-15   0.00000000000000E+00   0.00000000000000E+00
      0.00000000000000E+00   0.00000000000000E+00  -9.41500170709469E-06  -9.12216068285668E-25  -9.41500170709469E-06
      1.88179653811101E-15   9.52333333333333E-01   9.52333333333333E-01   0.00000000000000E+00   0.00000000000000E+00
      9.41500170877255E-06   4.45799385690952E-20   9.41500170877260E-06   3.25707892946307E-15   3.00000000000000E+00
      3.00000000000000E+00   0.00000000000000E+00   0.00000000000000E+00   0.00000000000000E+00   0.00000000000000E+00
      0.00000000000000E+00   2.86280795115393E-15
      3.42444444444444E-01
      0.00000000000000E+00   0.00000000000000E+00   0.00000000000000E+00   0.00000000000000E+00  -2.73177444043320E-18
     -1.70573259824755E-15  -1.70846437268798E-15  -8.08446050689981E-15   0.00000000000000E+00   0.00000000000000E+00
      0.00000000000000E+00   0.00000000000000E+00  -9.44240232088631E-06  -9.17034705484712E-25  -9.44240232088631E-06
      1.88179618520188E-15   1.02733333333333E+00   1.02733333333333E+00   0.00000000000000E+00   0.00000000000000E+00
      9.44240232259473E-06   4.53688430187281E-20   9.44240232259478E-06   3.34894329944261E-15   3.00000000000000E+00
      3.00000000000000E+00   0.00000000000000E+00   0.00000000000000E+00   0.00000000000000E+00   0.00000000000000E+00
      0.00000000000000E+00   2.85372102225530E-15
      3.67444444444445E-01
      0.00000000000000E+00   0.00000000000000E+00   0.00000000000000E+00   0.00000000000000E+00   1.51347234703095E-19
     -1.72607951477790E-15  -1.72592816754319E-15  -8.16749415370001E-15   0.00000000000000E+00   0.00000000000000E+00
      0.00000000000000E+00   0.00000000000000E+00  -9.46678168872908E-06  -9.15850330891906E-25  -9.46678168872908E-06
      1.88179587110150E-15   1.10233333333333E+00   1.10233333333333E+00   0.00000000000000E+00   0.00000000000000E+00
      9.46678169045495E-06   4.53764843922912E-20   9.46678169045500E-06   3.44043565102630E-15   3.00000000000000E+00
      3.00000000000000E+00   0.00000000000000E+00   0.00000000000000E+00   0.00000000000000E+00   0.00000000000000E+00
      0.00000000000000E+00   2.84526263157220E-15
      3.92444444444445E-01
      0.00000000000000E+00   0.00000000000000E+00   0.00000000000000E+00   0.00000000000000E+00  -3.47252182762297E-19
     -1.73994134501725E-15  -1.74028859720001E-15  -8.25118420061356E-15   0.00000000000000E+00   0.00000000000000E+00
      0.00000000000000E+00   0.00000000000000E+00  -9.48868956187572E-06  -9.19893419615271E-25  -9.48868956187572E-06
      1.88179558876014E-15   1.17733333333333E+00   1.17733333333333E+00   0.00000000000000E+00   0.00000000000000E+00
      9.48868956361596E-06   4.53840820440540E-20   9.48868956361600E-06   3.53201165897641E-15   3.00000000000000E+00
      3.00000000000000E+00   0.00000000000000E+00   0.00000000000000E+00   0.00000000000000E+00   0.00000000000000E+00
      0.00000000000000E+00   2.83737695287701E-15
      4.17444444444445E-01
      0.00000000000000E+00   0.00000000000000E+00   0.00000000000000E+00   0.00000000000000E+00   2.16335889099900E-18
     -1.75106766188254E-15  -1.74890430299154E-15  -8.33549978664459E-15   0.00000000000000E+00   0.00000000000000E+00
      0.00000000000000E+00   0.00000000000000E+00  -9.50877217639738E-06  -9.23056424931733E-25  -9.50877217639738E-06
      1.88179532987273E-15   1.25233333333333E+00   1.25233333333333E+00   0.00000000000000E+00   0.00000000000000E+00
      9.50877217814623E-06   4.53917548921526E-20   9.50877217814628E-06   3.62376408516687E-15   3.00000000000000E+00
      3.00000000000000E+00   0.00000000000000E+00   0.00000000000000E+00   0.00000000000000E+00   0.00000000000000E+00
      0.00000000000000E+00   2.82994037160499E-15
      4.42444444444445E-01
      0.00000000000000E+00   0.00000000000000E+00   0.00000000000000E+00   0.00000000000000E+00   1.92302521652555E-15
     -1.76255476527123E-15   1.60470451254324E-16  -8.42006517671611E-15   0.00000000000000E+00   0.00000000000000E+00
      0.00000000000000E+00   0.00000000000000E+00  -9.52768240894295E-06  -9.20945138771391E-25  -9.52768240894295E-06
      1.88179508603793E-15   1.32733333333333E+00   1.32733333333333E+00   0.00000000000000E+00   0.00000000000000E+00
      9.52768240878243E-06   4.53996698166771E-20   9.52768240878247E-06   3.71548424744359E-15   3.00000000000000E+00
      3.00000000000000E+00   0.00000000000000E+00   0.00000000000000E+00   0.00000000000000E+00   0.00000000000000E+00
      0.00000000000000E+00   2.82278584323459E-15
      4.67444444444445E-01
      0.00000000000000E+00   0.00000000000000E+00   0.00000000000000E+00   0.00000000000000E+00   1.14232663479059E-16
     -1.77614641172640E-15  -1.66191374824734E-15  -8.50447685312454E-15   0.00000000000000E+00   0.00000000000000E+00
      0.00000000000000E+00   0.00000000000000E+00  -9.54590058692179E-06  -9.25214931160209E-25  -9.54590058692179E-06
      1.88179485107100E-15   1.40233333333333E+00   1.40233333333333E+00   0.00000000000000E+00   0.00000000000000E+00
      9.54590058858365E-06   4.54078955790138E-20   9.54590058858370E-06   3.80690527504827E-15   3.00000000000000E+00
      3.00000000000000E+00   0.00000000000000E+00   0.00000000000000E+00   0.00000000000000E+00   0.00000000000000E+00
      0.00000000000000E+00   2.81577672700527E-15
      4.92444444444445E-01
      0.00000000000000E+00   0.00000000000000E+00   0.00000000000000E+00   0.00000000000000E+00   2.66008053409370E-18
     -1.79154843458325E-15  -1.78888835404915E-15  -8.58853319265603E-15   0.00000000000000E+00   0.00000000000000E+00
      0.00000000000000E+00   0.00000000000000E+00  -9.56362623785079E-06  -9.26871231206993E-25  -9.56362623785079E-06
      1.88179462240388E-15   1.47733333333333E+00   1.47733333333333E+00   0.00000000000000E+00   0.00000000000000E+00
      9.56362623963963E-06   4.54160071568092E-20   9.56362623963968E-06   3.89788012590129E-15   3.00000000000000E+00
      3.00000000000000E+00   0.00000000000000E+00   0.00000000000000E+00   0.00000000000000E+00   0.00000000000000E+00
      0.00000000000000E+00   2.80885844435086E-15
      5.17444444444445E-01
      0.00000000000000E+00   0.00000000000000E+00   0.00000000000000E+00   0.00000000000000E+00   8.12118092962495E-19
     -1.80779412800184E-15  -1.80698200990888E-15  -8.67216905716220E-15   0.00000000000000E+00   0.00000000000000E+00
      0.00000000000000E+00   0.00000000000000E+00  -9.58089859501667E-06  -9.28188564484627E-25  -9.58089859501667E-06
      1.88179439953456E-15   1.55233333333333E+00   1.55233333333333E+00   0.00000000000000E+00   0.00000000000000E+00
      9.58089859682361E-06   4.54238231391587E-20   9.58089859682366E-06   3.98834717461847E-15   3.00000000000000E+00
      3.00000000000000E+00   0.00000000000000E+00   0.00000000000000E+00   0.00000000000000E+00   0.00000000000000E+00
      0.00000000000000E+00   2.80202748300918E-15
      5.42444444444445E-01
      0.00000000000000E+00   0.00000000000000E+00   0.00000000000000E+00   0.00000000000000E+00   5.04736843217376E-19
     -1.82842970426398E-15  -1.82792496742076E-15  -8.75536689597810E-15   0.00000000000000E+00   0.00000000000000E+00
      0.00000000000000E+00   0.00000000000000E+00  -9.59769630960549E-06  -9.30686152519404E-25  -9.59769630960549E-06
      1.88179418274246E-15   1.62733333333333E+00   1.62733333333333E+00   0.00000000000000E+00   0.00000000000000E+00
      9.59769631143337E-06   4.54313384167429E-20   9.59769631143342E-06   4.07827189797563E-15   3.00000000000000E+00
      3.00000000000000E+00   0.00000000000000E+00   0.00000000000000E+00   0.00000000000000E+00   0.00000000000000E+00
      0.00000000000000E+00   2.79530081526001E-15
      5.67444444444445E-01
      0.00000000000000E+00   0.00000000000000E+00   0.00000000000000E+00   0.00000000000000E+00   1.49035180514242E-18
     -1.86307578913117E-15  -1.86158543732602E-15  -8.83811861030558E-15   0.00000000000000E+00   0.00000000000000E+00
      0.00000000000000E+00   0.00000000000000E+00  -9.61398447408189E-06  -9.34147711873715E-25  -9.61398447408189E-06
      1.88179397248215E-15   1.70233333333333E+00   1.70233333333333E+00   0.00000000000000E+00   0.00000000000000E+00
      9.61398447594342E-06   4.54385759181541E-20   9.61398447594347E-06   4.16762457932000E-15   3.00000000000000E+00
      3.00000000000000E+00   0.00000000000000E+00   0.00000000000000E+00   0.00000000000000E+00   0.00000000000000E+00
      0.00000000000000E+00   2.78870005850343E-15
      5.92444444444445E-01
      0.00000000000000E+00   0.00000000000000E+00   0.00000000000000E+00   0.00000000000000E+00  -1.17997543337239E-19
     -1.92721536230296E-15  -1.92733335984630E-15  -8.92041518156192E-15   0.00000000000000E+00   0.00000000000000E+00
      0.00000000000000E+00   0.00000000000000E+00  -9.62975622969839E-06  -9.31804410098311E-25  -9.62975622969839E-06
      1.88179376884628E-15   1.77733333333333E+00   1.77733333333333E+00   0.00000000000000E+00   0.00000000000000E+00
      9.62975623162568E-06   4.54455595831203E-20   9.62975623162573E-06   4.25638578733522E-15   3.00000000000000E+00
      3.00000000000000E+00   0.00000000000000E+00   0.00000000000000E+00   0.00000000000000E+00   0.00000000000000E+00
      0.00000000000000E+00   2.78223562538041E-15
      6.17444444444445E-01
      0.00000000000000E+00   0.00000000000000E+00   0.00000000000000E+00   0.00000000000000E+00   1.43289462677941E-18
     -2.03565493282812E-15  -2.03422203820134E-15  -9.00224624427343E-15   0.00000000000000E+00   0.00000000000000E+00
      0.00000000000000E+00   0.00000000000000E+00  -9.64506788099563E-06  -9.35270408620671E-25  -9.64506788099563E-06
      1.88179357111168E-15   1.85233333333333E+00   1.85233333333333E+00   0.00000000000000E+00   0.00000000000000E+00
      9.64506788302980E-06   4.54523095359614E-20   9.64506788302985E-06   4.34456058583892E-15   3.00000000000000E+00
      3.00000000000000E+00   0.00000000000000E+00   0.00000000000000E+00   0.00000000000000E+00   0.00000000000000E+00
      0.00000000000000E+00   2.77589208732284E-15
      6.42444444444445E-01
      0.00000000000000E+00   0.00000000000000E+00   0.00000000000000E+00   0.00000000000000E+00   4.51522256058952E-19
     -2.18159203100490E-15  -2.18114050874884E-15  -9.08359664481740E-15   0.00000000000000E+00   0.00000000000000E+00
      0.00000000000000E+00   0.00000000000000E+00  -9.66002714719957E-06  -9.33990764447452E-25  -9.66002714719957E-06
      1.88179337789034E-15   1.92733333333333E+00   1.92733333333333E+00   0.00000000000000E+00   0.00000000000000E+00
      9.66002714938066E-06   4.54588410284264E-20   9.66002714938070E-06   4.43217178055889E-15   3.00000000000000E+00
      3.00000000000000E+00   0.00000000000000E+00   0.00000000000000E+00   0.00000000000000E+00   0.00000000000000E+00
      0.00000000000000E+00   2.76963148636817E-15
      6.67444444444445E-01
      0.00000000000000E+00   0.00000000000000E+00   0.00000000000000E+00   0.00000000000000E+00  -3.50309021313743E-18
     -2.32608615575106E-15  -2.32958924596419E-15  -9.16443451251413E-15   0.00000000000000E+00   0.00000000000000E+00
      0.00000000000000E+00   0.00000000000000E+00  -9.67473983091041E-06  -9.38545599533699E-25  -9.67473983091041E-06
      1.88179318781788E-15   2.00233333333333E+00   2.00233333333333E+00   0.00000000000000E+00   0.00000000000000E+00
      9.67473983323995E-06   4.54651663083449E-20   9.67473983323999E-06   4.51922714974326E-15   3.00000000000000E+00
      3.00000000000000E+00   0.00000000000000E+00   0.00000000000000E+00   0.00000000000000E+00   0.00000000000000E+00
      0.00000000000000E+00   2.76341417495299E-15
      6.92444444444445E-01
      0.00000000000000E+00   0.00000000000000E+00   0.00000000000000E+00   0.00000000000000E+00  -3.97857915347709E-18
     -2.43123743365682E-15  -2.43521601281029E-15  -9.24469465461062E-15   0.00000000000000E+00   0.00000000000000E+00
      0.00000000000000E+00   0.00000000000000E+00  -9.68927432513993E-06  -9.38996077900934E-25  -9.68927432513993E-06
      1.88179300001229E-15   2.07733333333333E+00   2.07733333333333E+00   0.00000000000000E+00   0.00000000000000E+00
      9.68927432757509E-06   4.54712940865491E-20   9.68927432757513E-06   4.60568761886265E-15   3.00000000000000E+00
      3.00000000000000E+00   0.00000000000000E+00   0.00000000000000E+00   0.00000000000000E+00   0.00000000000000E+00
      0.00000000000000E+00   2.75721403573567E-15
      7.17444444444445E-01
      0.00000000000000E+00   0.00000000000000E+00   0.00000000000000E+00   0.00000000000000E+00  -7.00603186390790E-19
     -2.49205312667726E-15  -2.49275372986365E-15  -9.32426819251852E-15   0.00000000000000E+00   0.00000000000000E+00
      0.00000000000000E+00   0.00000000000000E+00  -9.70366534988572E-06  -9.40608360576044E-25  -9.70366534988572E-06
      1.88179281402610E-15   2.15233333333333E+00   2.15233333333333E+00   0.00000000000000E+00   0.00000000000000E+00
      9.70366535237841E-06   4.54772293049555E-20   9.70366535237846E-06   4.69145731054679E-15   3.00000000000000E+00
      3.00000000000000E+00   0.00000000000000E+00   0.00000000000000E+00   0.00000000000000E+00   0.00000000000000E+00
      0.00000000000000E+00   2.75101806794564E-15
      7.42444444444445E-01
      0.00000000000000E+00   0.00000000000000E+00   0.00000000000000E+00   0.00000000000000E+00   1.72363896249444E-18
     -2.52303088246252E-15  -2.52130724350003E-15  -9.40299823611949E-15   0.00000000000000E+00   0.00000000000000E+00
      0.00000000000000E+00   0.00000000000000E+00  -9.71792955714502E-06  -9.41063974819144E-25  -9.71792955714502E-06
      1.88179262964504E-15   2.22733333333333E+00   2.22733333333333E+00   0.00000000000000E+00   0.00000000000000E+00
      9.71792955966628E-06   4.54829724291946E-20   9.71792955966633E-06   4.77638502874338E-15   3.00000000000000E+00
      3.00000000000000E+00   0.00000000000000E+00   0.00000000000000E+00   0.00000000000000E+00   0.00000000000000E+00
      0.00000000000000E+00   2.74482057773107E-15
      7.67444444444445E-01
      0.00000000000000E+00   0.00000000000000E+00   0.00000000000000E+00   0.00000000000000E+00   7.18173214782603E-19
     -2.53808395714528E-15  -2.53736578393050E-15  -9.48067764815914E-15   0.00000000000000E+00   0.00000000000000E+00
      0.00000000000000E+00   0.00000000000000E+00  -9.73207590297894E-06  -9.41448789383268E-25  -9.73207590297894E-06
      1.88179244675420E-15   2.30233333333333E+00   2.30233333333333E+00   0.00000000000000E+00   0.00000000000000E+00
      9.73207590551625E-06   4.54885189557201E-20   9.73207590551630E-06   4.86026608530693E-15   3.00000000000000E+00
      3.00000000000000E+00   0.00000000000000E+00   0.00000000000000E+00   0.00000000000000E+00   0.00000000000000E+00
      0.00000000000000E+00   2.73861911609801E-15
      7.92444444444445E-01
      0.00000000000000E+00   0.00000000000000E+00   0.00000000000000E+00   0.00000000000000E+00  -1.95120385337929E-19
     -2.54550181586606E-15  -2.54569693625140E-15  -9.55705569869723E-15   0.00000000000000E+00   0.00000000000000E+00
      0.00000000000000E+00   0.00000000000000E+00  -9.74611035594487E-06  -9.43564473429896E-25  -9.74611035594487E-06
      1.88179226527719E-15   2.37733333333333E+00   2.37733333333333E+00   0.00000000000000E+00   0.00000000000000E+00
      9.74611035849052E-06   4.54938599808117E-20   9.74611035849057E-06   4.94285085647614E-15   3.00000000000000E+00
      3.00000000000000E+00   0.00000000000000E+00   0.00000000000000E+00   0.00000000000000E+00   0.00000000000000E+00
      0.00000000000000E+00   2.73241257694390E-15
      8.17444444444445E-01
      0.00000000000000E+00   0.00000000000000E+00   0.00000000000000E+00   0.00000000000000E+00  -1.96218739455673E-18
     -2.54951248891010E-15  -2.55147467630466E-15  -9.63187171735128E-15   0.00000000000000E+00   0.00000000000000E+00
      0.00000000000000E+00   0.00000000000000E+00  -9.76003781137602E-06  -9.43780309428924E-25  -9.76003781137602E-06
      1.88179208515147E-15   2.45233333333333E+00   2.45233333333333E+00   0.00000000000000E+00   0.00000000000000E+00
      9.76003781392745E-06   4.54989846552489E-20   9.76003781392750E-06   5.02387924980292E-15   3.00000000000000E+00
      3.00000000000000E+00   0.00000000000000E+00   0.00000000000000E+00   0.00000000000000E+00   0.00000000000000E+00
      0.00000000000000E+00   2.72620038239688E-15
      8.42444444444445E-01
      0.00000000000000E+00   0.00000000000000E+00   0.00000000000000E+00   0.00000000000000E+00   1.40891811445843E-18
     -2.55223098553422E-15  -2.55082206741976E-15  -9.70493431641713E-15   0.00000000000000E+00   0.00000000000000E+00
      0.00000000000000E+00   0.00000000000000E+00  -9.77386280129186E-06  -9.47482476188408E-25  -9.77386280129186E-06
      1.88179190631913E-15   2.52733333333333E+00   2.52733333333333E+00   0.00000000000000E+00   0.00000000000000E+00
      9.77386280384264E-06   4.55038864449573E-20   9.77386280384269E-06   5.10316026504238E-15   3.00000000000000E+00
      3.00000000000000E+00   0.00000000000000E+00   0.00000000000000E+00   0.00000000000000E+00   0.00000000000000E+00
      0.00000000000000E+00   2.71998214505562E-15
      8.67444444444445E-01
      0.00000000000000E+00   0.00000000000000E+00   0.00000000000000E+00   0.00000000000000E+00  -1.25226135656593E-18