DF-ISE text

Info {
  version   = 1.0
  type      = xyplot
  datasets  = [
    "time"
    "substrate OuterVoltage" "substrate InnerVoltage" "substrate QuasiFermiPotential" "substrate DisplacementCurrent" "substrate eCurrent"
    "substrate hCurrent" "substrate TotalCurrent" "substrate Charge" "source OuterVoltage" "source InnerVoltage"
    "source QuasiFermiPotential" "source DisplacementCurrent" "source eCurrent" "source hCurrent" "source TotalCurrent"
    "source Charge" "drain OuterVoltage" "drain InnerVoltage" "drain QuasiFermiPotential" "drain DisplacementCurrent"
    "drain eCurrent" "drain hCurrent" "drain TotalCurrent" "drain Charge" "gate OuterVoltage"
    "gate InnerVoltage" "gate QuasiFermiPotential" "gate DisplacementCurrent" "gate eCurrent" "gate hCurrent"
    "gate TotalCurrent" "gate Charge" ]
  functions = [
    Time
    OuterVoltage InnerVoltage QuasiFermiPotential DisplacementCurrent eCurrent
    hCurrent TotalCurrent Charge OuterVoltage InnerVoltage
    QuasiFermiPotential DisplacementCurrent eCurrent hCurrent TotalCurrent
    Charge OuterVoltage InnerVoltage QuasiFermiPotential DisplacementCurrent
    eCurrent hCurrent TotalCurrent Charge OuterVoltage
    InnerVoltage QuasiFermiPotential DisplacementCurrent eCurrent hCurrent
    TotalCurrent Charge ]
}

Data {
      0.00000000000000E+00
      0.00000000000000E+00   0.00000000000000E+00   0.00000000000000E+00   0.00000000000000E+00  -1.40850895555617E-20
     -4.12395043561694E-29  -1.40850895968012E-20  -5.24646689151425E-15   0.00000000000000E+00   0.00000000000000E+00
      0.00000000000000E+00   0.00000000000000E+00   1.09110309875240E-20  -1.80528470536533E-27   1.09110291822393E-20
      1.99817441708395E-15   0.00000000000000E+00   0.00000000000000E+00   0.00000000000000E+00   0.00000000000000E+00
      3.17405856834440E-21   1.84621749700582E-27   3.17406041456189E-21   1.99817441708395E-15   1.00000000000000E+00
      1.00000000000000E+00   0.00000000000000E+00   0.00000000000000E+00   0.00000000000000E+00   0.00000000000000E+00
      0.00000000000000E+00   1.25011805734634E-15
      1.00000000000000E-02
      0.00000000000000E+00   0.00000000000000E+00   0.00000000000000E+00   0.00000000000000E+00   7.12802866229454E-17
     -3.89254782711308E-17   3.23548083518146E-17  -5.29316027680405E-15   0.00000000000000E+00   0.00000000000000E+00
      0.00000000000000E+00   0.00000000000000E+00  -5.02664489964739E-17   1.41295923746788E-28  -5.02664489963326E-17
      1.99817441708393E-15   3.00000000000000E-02   3.00000000000000E-02   0.00000000000000E+00   0.00000000000000E+00
      1.78808888609208E-17   3.07517835972328E-20   1.79116406445180E-17   2.04759707173506E-15   1.00000000000000E+00
      1.00000000000000E+00   0.00000000000000E+00   0.00000000000000E+00   0.00000000000000E+00   0.00000000000000E+00
      0.00000000000000E+00   1.24738878798506E-15
      2.33333333333333E-02
      0.00000000000000E+00   0.00000000000000E+00   0.00000000000000E+00   0.00000000000000E+00  -1.68237785815305E-19
     -7.66935121995564E-17  -7.68617499853717E-17  -5.35518589486139E-15   0.00000000000000E+00   0.00000000000000E+00
      0.00000000000000E+00   0.00000000000000E+00  -6.66413025745588E-17   8.70023636420369E-28  -6.66413025736888E-17
      1.99817441708391E-15   7.00000000000000E-02   7.00000000000000E-02   0.00000000000000E+00   0.00000000000000E+00
      1.43478607825108E-16   2.44447339527633E-20   1.43503052559061E-16   2.11317190634470E-15   1.00000000000000E+00
      1.00000000000000E+00   0.00000000000000E+00   0.00000000000000E+00   0.00000000000000E+00   0.00000000000000E+00
      0.00000000000000E+00   1.24383957143278E-15
      4.24444444444445E-02
      0.00000000000000E+00   0.00000000000000E+00   0.00000000000000E+00   0.00000000000000E+00  -6.33223363267977E-20
     -1.27061312284917E-16  -1.27124634621244E-16  -5.44361731462684E-15   0.00000000000000E+00   0.00000000000000E+00
      0.00000000000000E+00   0.00000000000000E+00  -6.91476169066554E-17   1.87816159966684E-27  -6.91476169047772E-17
      1.99817441708388E-15   1.27333333333333E-01   1.27333333333333E-01   0.00000000000000E+00   0.00000000000000E+00
      1.96112564282841E-16   1.59687243180261E-19   1.96272251526021E-16   2.20655790197667E-15   1.00000000000000E+00
      1.00000000000000E+00   0.00000000000000E+00   0.00000000000000E+00   0.00000000000000E+00   0.00000000000000E+00
      0.00000000000000E+00   1.23888499556628E-15
      6.74444444444444E-02
      0.00000000000000E+00   0.00000000000000E+00   0.00000000000000E+00   0.00000000000000E+00  -8.36484863962954E-20
     -2.07860708365464E-16  -2.07944356851860E-16  -5.55837346113073E-15   0.00000000000000E+00   0.00000000000000E+00
      0.00000000000000E+00   0.00000000000000E+00  -6.93161597811799E-17   1.20648794965258E-27  -6.93161597799734E-17
      1.99817441708384E-15   2.02333333333333E-01   2.02333333333333E-01   0.00000000000000E+00   0.00000000000000E+00
      2.77188495322036E-16   7.20213097980483E-20   2.77260516631834E-16   2.32765452765753E-15   1.00000000000000E+00
      1.00000000000000E+00   0.00000000000000E+00   0.00000000000000E+00   0.00000000000000E+00   0.00000000000000E+00
      0.00000000000000E+00   1.23254451638935E-15
      9.24444444444444E-02
      0.00000000000000E+00   0.00000000000000E+00   0.00000000000000E+00   0.00000000000000E+00  -1.35482216906767E-19
     -3.15948289603589E-16  -3.16083771820495E-16  -5.67194742443815E-15   0.00000000000000E+00   0.00000000000000E+00
      0.00000000000000E+00   0.00000000000000E+00  -6.94507667413154E-17  -3.79678706968476E-27  -6.94507667451122E-17
      1.99817441708379E-15   2.77333333333333E-01   2.77333333333333E-01   0.00000000000000E+00   0.00000000000000E+00
      3.85489345864205E-16   4.51927014035255E-20   3.85534538565608E-16   2.44748238369700E-15   1.00000000000000E+00
      1.00000000000000E+00   0.00000000000000E+00   0.00000000000000E+00   0.00000000000000E+00   0.00000000000000E+00
      0.00000000000000E+00   1.22629062365735E-15
      1.17444444444444E-01
      0.00000000000000E+00   0.00000000000000E+00   0.00000000000000E+00   0.00000000000000E+00   8.43948968908813E-20
     -4.51305389606579E-16  -4.51220994709689E-16  -5.78416329469853E-15   0.00000000000000E+00   0.00000000000000E+00
      0.00000000000000E+00   0.00000000000000E+00  -6.98150891595098E-17   3.70107430272915E-27  -6.98150891558087E-17
      1.99817441708373E-15   3.52333333333333E-01   3.52333333333333E-01   0.00000000000000E+00   0.00000000000000E+00
      5.20979650958637E-16   5.64329068609486E-20   5.21036083865498E-16   2.56589119856584E-15   1.00000000000000E+00
      1.00000000000000E+00   0.00000000000000E+00   0.00000000000000E+00   0.00000000000000E+00   0.00000000000000E+00
      0.00000000000000E+00   1.22009767904894E-15
      1.42444444444444E-01
      0.00000000000000E+00   0.00000000000000E+00   0.00000000000000E+00   0.00000000000000E+00   3.42206981811857E-20
     -6.11413246476470E-16  -6.11379025778289E-16  -5.89476895356121E-15   0.00000000000000E+00   0.00000000000000E+00
      0.00000000000000E+00   0.00000000000000E+00  -6.98989503541634E-17   1.71211887478631E-27  -6.98989503524512E-17
      1.99817441708365E-15   4.27333333333333E-01   4.27333333333333E-01   0.00000000000000E+00   0.00000000000000E+00
      6.81232487588971E-16   4.54885417696369E-20   6.81277976130741E-16   2.68262647481302E-15   1.00000000000000E+00
      1.00000000000000E+00   0.00000000000000E+00   0.00000000000000E+00   0.00000000000000E+00   0.00000000000000E+00
      0.00000000000000E+00   1.21396806166454E-15
      1.67444444444444E-01
      0.00000000000000E+00   0.00000000000000E+00   0.00000000000000E+00   0.00000000000000E+00  -7.90927114417484E-20
     -8.06038629258207E-16  -8.06117721969649E-16  -6.00339822760680E-15   0.00000000000000E+00   0.00000000000000E+00
      0.00000000000000E+00   0.00000000000000E+00  -6.99460755219084E-17   9.52431989796202E-28  -6.99460755209560E-17
      1.99817441708356E-15   5.02333333333333E-01   5.02333333333333E-01   0.00000000000000E+00   0.00000000000000E+00
      8.76018361295162E-16   4.54361954439256E-20   8.76063797490606E-16   2.79730687455834E-15   1.00000000000000E+00
      1.00000000000000E+00   0.00000000000000E+00   0.00000000000000E+00   0.00000000000000E+00   0.00000000000000E+00
      0.00000000000000E+00   1.20791693596489E-15
      1.92444444444444E-01
      0.00000000000000E+00   0.00000000000000E+00   0.00000000000000E+00   0.00000000000000E+00  -2.38813116504362E-19
     -1.04430237230543E-15  -1.04454118542194E-15  -6.10954737224944E-15   0.00000000000000E+00   0.00000000000000E+00
      0.00000000000000E+00   0.00000000000000E+00  -6.99284429393739E-17   1.83268017901274E-27  -6.99284429375412E-17
      1.99817441708345E-15   5.77333333333333E-01   5.77333333333333E-01   0.00000000000000E+00   0.00000000000000E+00
      1.11442429482060E-15   4.53335388771336E-20   1.11446962835948E-15   2.90940735741142E-15   1.00000000000000E+00
      1.00000000000000E+00   0.00000000000000E+00   0.00000000000000E+00   0.00000000000000E+00   0.00000000000000E+00
      0.00000000000000E+00   1.20196559775456E-15
      2.17444444444444E-01
      0.00000000000000E+00   0.00000000000000E+00   0.00000000000000E+00   0.00000000000000E+00  -1.61662326898003E-19
     -1.28535707621206E-15  -1.28551873853896E-15  -6.21259735290998E-15   0.00000000000000E+00   0.00000000000000E+00
      0.00000000000000E+00   0.00000000000000E+00  -7.01453905237192E-17  -3.07171491769790E-27  -7.01453905267909E-17
      1.99817441708334E-15   6.52333333333333E-01   6.52333333333333E-01   0.00000000000000E+00   0.00000000000000E+00
      1.35561880566495E-15   4.53234007997326E-20   1.35566412906575E-15   3.01828976319770E-15   1.00000000000000E+00
      1.00000000000000E+00   0.00000000000000E+00   0.00000000000000E+00   0.00000000000000E+00   0.00000000000000E+00
      0.00000000000000E+00   1.19613317262894E-15
      2.42444444444444E-01
      0.00000000000000E+00   0.00000000000000E+00   0.00000000000000E+00   0.00000000000000E+00   1.04320882315660E-19
     -1.45920414842793E-15  -1.45909982754561E-15  -6.31195919966333E-15   0.00000000000000E+00   0.00000000000000E+00
      0.00000000000000E+00   0.00000000000000E+00  -7.05436665877330E-17   1.32236352425276E-27  -7.05436665864107E-17
      1.99817441708326E-15   7.27333333333333E-01   7.27333333333333E-01   0.00000000000000E+00   0.00000000000000E+00
      1.52959816354050E-15   4.53305915199372E-20   1.52964349413202E-15   3.12336259334317E-15   1.00000000000000E+00
      1.00000000000000E+00   0.00000000000000E+00   0.00000000000000E+00   0.00000000000000E+00   0.00000000000000E+00
      0.00000000000000E+00   1.19042218923688E-15
      2.67444444444444E-01
      0.00000000000000E+00   0.00000000000000E+00   0.00000000000000E+00   0.00000000000000E+00  -5.76266291415553E-20
     -1.55762314576024E-15  -1.55768077238939E-15  -6.40738541440505E-15   0.00000000000000E+00   0.00000000000000E+00
      0.00000000000000E+00   0.00000000000000E+00  -7.05100845008515E-17   2.35307078800460E-27  -7.05100844984984E-17
      1.99817441708321E-15   8.02333333333333E-01   8.02333333333333E-01   0.00000000000000E+00   0.00000000000000E+00
      1.62814551839629E-15   4.53384915950130E-20   1.62819085688788E-15   3.22440223490353E-15   1.00000000000000E+00
      1.00000000000000E+00   0.00000000000000E+00   0.00000000000000E+00   0.00000000000000E+00   0.00000000000000E+00
      0.00000000000000E+00   1.18480876241831E-15
      2.92444444444444E-01
      0.00000000000000E+00   0.00000000000000E+00   0.00000000000000E+00   0.00000000000000E+00  -4.99520800030971E-20
     -1.61483049637580E-15  -1.61488044845580E-15  -6.49925814770523E-15   0.00000000000000E+00   0.00000000000000E+00
      0.00000000000000E+00   0.00000000000000E+00  -7.06425748042303E-17  -1.56691880606516E-27  -7.06425748057972E-17
      1.99817441708318E-15   8.77333333333333E-01   8.77333333333333E-01   0.00000000000000E+00   0.00000000000000E+00
      1.68547767681794E-15   4.53464436611488E-20   1.68552302326160E-15   3.32182973496038E-15   1.00000000000000E+00
      1.00000000000000E+00   0.00000000000000E+00   0.00000000000000E+00   0.00000000000000E+00   0.00000000000000E+00
      0.00000000000000E+00   1.17925399566167E-15
      3.17444444444444E-01
      0.00000000000000E+00   0.00000000000000E+00   0.00000000000000E+00   0.00000000000000E+00  -7.40269586925343E-20
     -1.65455564967865E-15  -1.65462967663735E-15  -6.58849059019881E-15   0.00000000000000E+00   0.00000000000000E+00
      0.00000000000000E+00   0.00000000000000E+00  -7.07418783307908E-17  -2.09935282187072E-27  -7.07418783328901E-17
      1.99817441708316E-15   9.52333333333333E-01   9.52333333333333E-01   0.00000000000000E+00   0.00000000000000E+00
      1.72532620069927E-15   4.53542709612329E-20   1.72537155497023E-15   3.41659159780334E-15   1.00000000000000E+00
      1.00000000000000E+00   0.00000000000000E+00   0.00000000000000E+00   0.00000000000000E+00   0.00000000000000E+00
      0.00000000000000E+00   1.17372457531229E-15
      3.42444444444444E-01
      0.00000000000000E+00   0.00000000000000E+00   0.00000000000000E+00   0.00000000000000E+00  -1.81220735083519E-19
     -1.68332681191418E-15  -1.68350803264926E-15  -6.67606118466243E-15   0.00000000000000E+00   0.00000000000000E+00
      0.00000000000000E+00   0.00000000000000E+00  -7.07558192221718E-17  -6.67262678510901E-27  -7.07558192288445E-17
      1.99817441708315E-15   1.02733333333333E+00   1.02733333333333E+00   0.00000000000000E+00   0.00000000000000E+00
      1.75421848989828E-15   4.53619798252805E-20   1.75426385187810E-15   3.50968624794977E-15   1.00000000000000E+00
      1.00000000000000E+00   0.00000000000000E+00   0.00000000000000E+00   0.00000000000000E+00   0.00000000000000E+00
      0.00000000000000E+00   1.16820051962951E-15
      3.67444444444445E-01
      0.00000000000000E+00   0.00000000000000E+00   0.00000000000000E+00   0.00000000000000E+00  -8.84004544121946E-20
     -1.70059444701213E-15  -1.70068284746654E-15  -6.76266000707230E-15   0.00000000000000E+00   0.00000000000000E+00
      0.00000000000000E+00   0.00000000000000E+00  -7.09694006970100E-17   3.92193374300180E-27  -7.09694006930881E-17
      1.99817441708314E-15   1.10233333333333E+00   1.10233333333333E+00   0.00000000000000E+00   0.00000000000000E+00
      1.77160687855631E-15   4.53696033218727E-20   1.77165224815963E-15   3.60181364584714E-15   1.00000000000000E+00
      1.00000000000000E+00   0.00000000000000E+00   0.00000000000000E+00   0.00000000000000E+00   0.00000000000000E+00
      0.00000000000000E+00   1.16267194414203E-15
      3.92444444444445E-01
      0.00000000000000E+00   0.00000000000000E+00   0.00000000000000E+00   0.00000000000000E+00   1.49494939028151E-19
     -1.71072917151113E-15  -1.71057967657210E-15  -6.84865620083363E-15   0.00000000000000E+00   0.00000000000000E+00
      0.00000000000000E+00   0.00000000000000E+00  -7.12987938530503E-17  -2.79065373975830E-27  -7.12987938558409E-17
      1.99817441708314E-15   1.17733333333333E+00   1.17733333333333E+00   0.00000000000000E+00   0.00000000000000E+00
      1.78183317833884E-15   4.52920890906760E-20   1.78187847042794E-15   3.69334743408090E-15   1.00000000000000E+00
      1.00000000000000E+00   0.00000000000000E+00   0.00000000000000E+00   0.00000000000000E+00   0.00000000000000E+00
      0.00000000000000E+00   1.15713434966959E-15
      4.17444444444445E-01
      0.00000000000000E+00   0.00000000000000E+00   0.00000000000000E+00   0.00000000000000E+00  -1.21633490472528E-19
     -1.71934425002727E-15  -1.71946588351774E-15  -6.93420942317014E-15   0.00000000000000E+00   0.00000000000000E+00
      0.00000000000000E+00   0.00000000000000E+00  -7.11741826980970E-17  -3.46434652840199E-27  -7.11741827015613E-17
      1.99817441708312E-15   1.25233333333333E+00   1.25233333333333E+00   0.00000000000000E+00   0.00000000000000E+00
      1.79059468139116E-15   4.53848281381889E-20   1.79064006621930E-15   3.78444931263460E-15   1.00000000000000E+00
      1.00000000000000E+00   0.00000000000000E+00   0.00000000000000E+00   0.00000000000000E+00   0.00000000000000E+00
      0.00000000000000E+00   1.15158569345242E-15
      4.42444444444445E-01
      0.00000000000000E+00   0.00000000000000E+00   0.00000000000000E+00   0.00000000000000E+00  -1.88883404414903E-19
     -1.73031332461075E-15  -1.73050220801516E-15  -7.01937261987958E-15   0.00000000000000E+00   0.00000000000000E+00
      0.00000000000000E+00   0.00000000000000E+00  -7.12266007842692E-17  -1.69201426092591E-27  -7.12266007859612E-17
      1.99817441708311E-15   1.32733333333333E+00   1.32733333333333E+00   0.00000000000000E+00   0.00000000000000E+00
      1.80168341605379E-15   4.53927473379875E-20   1.80172880880113E-15   3.87517323507897E-15   1.00000000000000E+00
      1.00000000000000E+00   0.00000000000000E+00   0.00000000000000E+00   0.00000000000000E+00   0.00000000000000E+00
      0.00000000000000E+00   1.14602496771749E-15
      4.67444444444445E-01
      0.00000000000000E+00   0.00000000000000E+00   0.00000000000000E+00   0.00000000000000E+00   6.13176284077182E-21
     -1.74619945511682E-15  -1.74619332335398E-15  -7.10415543088889E-15   0.00000000000000E+00   0.00000000000000E+00
      0.00000000000000E+00   0.00000000000000E+00  -7.15396168123365E-17  -4.61505657645018E-27  -7.15396168169515E-17
      1.99817441708310E-15   1.40233333333333E+00   1.40233333333333E+00   0.00000000000000E+00   0.00000000000000E+00
      1.81768753921858E-15   4.54009523485050E-20   1.81773294017093E-15   3.96552942883999E-15   1.00000000000000E+00
      1.00000000000000E+00   0.00000000000000E+00   0.00000000000000E+00   0.00000000000000E+00   0.00000000000000E+00
      0.00000000000000E+00   1.14045158496579E-15
      4.92444444444445E-01
      0.00000000000000E+00   0.00000000000000E+00   0.00000000000000E+00   0.00000000000000E+00  -5.45527282434011E-20
     -1.76677714426683E-15  -1.76683169699507E-15  -7.18855800505083E-15   0.00000000000000E+00   0.00000000000000E+00
      0.00000000000000E+00   0.00000000000000E+00  -7.15963517952887E-17   8.37160612049974E-27  -7.15963517869171E-17
      1.99817441708309E-15   1.47733333333333E+00   1.47733333333333E+00   0.00000000000000E+00   0.00000000000000E+00
      1.83838263973512E-15   4.54090468707442E-20   1.83842804878199E-15   4.05551844441289E-15   1.00000000000000E+00
      1.00000000000000E+00   0.00000000000000E+00   0.00000000000000E+00   0.00000000000000E+00   0.00000000000000E+00
      0.00000000000000E+00   1.13486514355485E-15
      5.17444444444445E-01
      0.00000000000000E+00   0.00000000000000E+00   0.00000000000000E+00   0.00000000000000E+00  -2.56314505568116E-20
     -1.78963944730524E-15  -1.78966507875580E-15  -7.27258362452136E-15   0.00000000000000E+00   0.00000000000000E+00
      0.00000000000000E+00   0.00000000000000E+00  -7.17421582184197E-17  -1.00332393544778E-27  -7.17421582194230E-17
      1.99817441708307E-15   1.55233333333333E+00   1.55233333333333E+00   0.00000000000000E+00   0.00000000000000E+00
      1.86136182012844E-15   4.54168467790224E-20   1.86140723697522E-15   4.14514384248976E-15   1.00000000000000E+00
      1.00000000000000E+00   0.00000000000000E+00   0.00000000000000E+00   0.00000000000000E+00   0.00000000000000E+00
      0.00000000000000E+00   1.12926536494852E-15
      5.42444444444445E-01
      0.00000000000000E+00   0.00000000000000E+00   0.00000000000000E+00   0.00000000000000E+00   3.09840821527963E-21
     -1.81700186945734E-15  -1.81699877104912E-15  -7.35623722592367E-15   0.00000000000000E+00   0.00000000000000E+00
      0.00000000000000E+00   0.00000000000000E+00  -7.18872286097819E-17  -7.44320987137462E-28  -7.18872286105262E-17
      1.99817441708305E-15   1.62733333333333E+00   1.62733333333333E+00   0.00000000000000E+00   0.00000000000000E+00
      1.88884057531416E-15   4.54243454947029E-20   1.88888599965965E-15   4.23441070295426E-15   1.00000000000000E+00
      1.00000000000000E+00   0.00000000000000E+00   0.00000000000000E+00   0.00000000000000E+00   0.00000000000000E+00
      0.00000000000000E+00   1.12365210588636E-15
      5.67444444444445E-01
      0.00000000000000E+00   0.00000000000000E+00   0.00000000000000E+00   0.00000000000000E+00  -1.62501742603037E-19
     -1.85831077970200E-15  -1.85847328144460E-15  -7.43951947932633E-15   0.00000000000000E+00   0.00000000000000E+00
      0.00000000000000E+00   0.00000000000000E+00  -7.18374325843662E-17   2.42732920822466E-27  -7.18374325819389E-17
      1.99817441708303E-15   1.70233333333333E+00   1.70233333333333E+00   0.00000000000000E+00   0.00000000000000E+00
      1.93026528246031E-15   4.54315662265242E-20   1.93031071402654E-15   4.32331966614483E-15   1.00000000000000E+00
      1.00000000000000E+00   0.00000000000000E+00   0.00000000000000E+00   0.00000000000000E+00   0.00000000000000E+00
      0.00000000000000E+00   1.11802539609848E-15
      5.92444444444445E-01
      0.00000000000000E+00   0.00000000000000E+00   0.00000000000000E+00   0.00000000000000E+00  -5.33469156632630E-20
     -1.92881380422227E-15  -1.92886715113794E-15  -7.52242235144474E-15   0.00000000000000E+00   0.00000000000000E+00
      0.00000000000000E+00   0.00000000000000E+00  -7.20618446756105E-17  -7.19809540596463E-27  -7.20618446828086E-17
      1.99817441708290E-15   1.77733333333333E+00   1.77733333333333E+00   0.00000000000000E+00   0.00000000000000E+00
      2.00088360332557E-15   4.53924951745041E-20   2.00092899582074E-15   4.41186247561578E-15   1.00000000000000E+00
      1.00000000000000E+00   0.00000000000000E+00   0.00000000000000E+00   0.00000000000000E+00   0.00000000000000E+00
      0.00000000000000E+00   1.11238545874606E-15
      6.17444444444445E-01
      0.00000000000000E+00   0.00000000000000E+00   0.00000000000000E+00   0.00000000000000E+00  -1.10074827154729E-19
     -2.04284761853440E-15  -2.04295769336156E-15  -7.60492571006304E-15   0.00000000000000E+00   0.00000000000000E+00
      0.00000000000000E+00   0.00000000000000E+00  -7.21198045463225E-17   1.96106615168749E-27  -7.21198045443614E-17
      1.99817441708294E-15   1.85233333333333E+00   1.85233333333333E+00   0.00000000000000E+00   0.00000000000000E+00
      2.11503207098649E-15   4.54269194323850E-20   2.11507749790592E-15   4.50001861143099E-15   1.00000000000000E+00
      1.00000000000000E+00   0.00000000000000E+00   0.00000000000000E+00   0.00000000000000E+00   0.00000000000000E+00
      0.00000000000000E+00   1.10673268154911E-15
      6.42444444444445E-01
      0.00000000000000E+00   0.00000000000000E+00   0.00000000000000E+00   0.00000000000000E+00  -7.24228642385386E-20
     -2.19341451560854E-15  -2.19348693847278E-15  -7.68699324222482E-15   0.00000000000000E+00   0.00000000000000E+00
      0.00000000000000E+00   0.00000000000000E+00  -7.22715117333016E-17   3.10653729328131E-27  -7.22715117301951E-17
      1.99817441708292E-15   1.92733333333333E+00   1.92733333333333E+00   0.00000000000000E+00   0.00000000000000E+00
      2.26571299875345E-15   4.54514495194147E-20   2.26575845020297E-15   4.58775127837384E-15   1.00000000000000E+00
      1.00000000000000E+00   0.00000000000000E+00   0.00000000000000E+00   0.00000000000000E+00   0.00000000000000E+00
      0.00000000000000E+00   1.10106754676806E-15
      6.67444444444445E-01
      0.00000000000000E+00   0.00000000000000E+00   0.00000000000000E+00   0.00000000000000E+00  -2.31799907950284E-19
     -2.34052113867412E-15  -2.34075293858207E-15  -7.76856745839068E-15   0.00000000000000E+00   0.00000000000000E+00
      0.00000000000000E+00   0.00000000000000E+00  -7.22253740458525E-17   1.43259021843864E-27  -7.22253740444199E-17
      1.99817441708291E-15   2.00233333333333E+00   2.00233333333333E+00   0.00000000000000E+00   0.00000000000000E+00
      2.41293285453010E-15   4.54580963935859E-20   2.41297831262649E-15   4.67500248236513E-15   1.00000000000000E+00
      1.00000000000000E+00   0.00000000000000E+00   0.00000000000000E+00   0.00000000000000E+00   0.00000000000000E+00
      0.00000000000000E+00   1.09539055894266E-15
      6.92444444444445E-01
      0.00000000000000E+00   0.00000000000000E+00   0.00000000000000E+00   0.00000000000000E+00  -2.01423577791362E-19
     -2.44520270726018E-15  -2.44540413083797E-15  -7.84956391471522E-15   0.00000000000000E+00   0.00000000000000E+00
      0.00000000000000E+00   0.00000000000000E+00  -7.23681911370959E-17  -1.09534107159775E-27  -7.23681911381912E-17
      1.99817441708296E-15   2.07733333333333E+00   2.07733333333333E+00   0.00000000000000E+00   0.00000000000000E+00
      2.51772685777608E-15   4.54642000807400E-20   2.51777232197616E-15   4.76168729813563E-15   1.00000000000000E+00
      1.00000000000000E+00   0.00000000000000E+00   0.00000000000000E+00   0.00000000000000E+00   0.00000000000000E+00
      0.00000000000000E+00   1.08970219949663E-15
      7.17444444444445E-01
      0.00000000000000E+00   0.00000000000000E+00   0.00000000000000E+00   0.00000000000000E+00  -2.90003100997563E-20
     -2.50349430561248E-15  -2.50352330592258E-15  -7.92986438266125E-15   0.00000000000000E+00   0.00000000000000E+00
      0.00000000000000E+00   0.00000000000000E+00  -7.26528142532969E-17  -6.66841912523860E-28  -7.26528142539638E-17
      1.99817441708313E-15   2.15233333333333E+00   2.15233333333333E+00   0.00000000000000E+00   0.00000000000000E+00
      2.57613065019795E-15   4.54699785990025E-20   2.57617612017655E-15   4.84768705513083E-15   1.00000000000000E+00
      1.00000000000000E+00   0.00000000000000E+00   0.00000000000000E+00   0.00000000000000E+00   0.00000000000000E+00
      0.00000000000000E+00   1.08400291044730E-15
      7.42444444444445E-01
      0.00000000000000E+00   0.00000000000000E+00   0.00000000000000E+00   0.00000000000000E+00  -7.59104945338129E-20
     -2.53215942157692E-15  -2.53223533207145E-15  -8.00930919292202E-15   0.00000000000000E+00   0.00000000000000E+00
      0.00000000000000E+00   0.00000000000000E+00  -7.27177614928150E-17  -3.88363523928687E-27  -7.27177614966986E-17
      1.99817441708350E-15   2.22733333333333E+00   2.22733333333333E+00   0.00000000000000E+00   0.00000000000000E+00
      2.60490761905184E-15   4.54745163107734E-20   2.60495309356815E-15   4.93284168118111E-15   1.00000000000000E+00
      1.00000000000000E+00   0.00000000000000E+00   0.00000000000000E+00   0.00000000000000E+00   0.00000000000000E+00
      0.00000000000000E+00   1.07829309465741E-15
      7.67444444444445E-01
      0.00000000000000E+00   0.00000000000000E+00   0.00000000000000E+00   0.00000000000000E+00  -1.14220355721647E-20
     -2.54671542403633E-15  -2.54672684607191E-15  -8.08769152469504E-15   0.00000000000000E+00   0.00000000000000E+00
      0.00000000000000E+00   0.00000000000000E+00  -7.28932708923590E-17   5.44717863428671E-28  -7.28932708918143E-17
      1.99817441708269E-15   2.30233333333333E+00   2.30233333333333E+00   0.00000000000000E+00   0.00000000000000E+00
      2.61957463555627E-15   4.54814074529142E-20   2.61962011696372E-15   5.01694398757751E-15   1.00000000000000E+00
      1.00000000000000E+00   0.00000000000000E+00   0.00000000000000E+00   0.00000000000000E+00   0.00000000000000E+00
      0.00000000000000E+00   1.07257312003482E-15
      7.92444444444445E-01
      0.00000000000000E+00   0.00000000000000E+00   0.00000000000000E+00   0.00000000000000E+00  -1.09713443745641E-19
     -2.55577360017038E-15  -2.55588331361413E-15  -8.16476227304735E-15   0.00000000000000E+00   0.00000000000000E+00
      0.00000000000000E+00   0.00000000000000E+00  -7.29050299538670E-17   3.09208466249262E-27  -7.29050299507749E-17
      1.99817441708268E-15   2.37733333333333E+00   2.37733333333333E+00   0.00000000000000E+00   0.00000000000000E+00
      2.62874285682531E-15   4.54867396000874E-20   2.62878834356491E-15   5.09974453509358E-15   1.00000000000000E+00
      1.00000000000000E+00   0.00000000000000E+00   0.00000000000000E+00   0.00000000000000E+00   0.00000000000000E+00
      0.00000000000000E+00   1.06684332087108E-15
      8.17444444444445E-01
      0.00000000000000E+00   0.00000000000000E+00   0.00000000000000E+00   0.00000000000000E+00   7.11314395300228E-21
     -2.56283473696107E-15  -2.56282762381712E-15  -8.24026291360754E-15   0.00000000000000E+00   0.00000000000000E+00
      0.00000000000000E+00   0.00000000000000E+00  -7.31311913186050E-17   1.09931715788522E-27  -7.31311913175057E-17
      1.99817441708268E-15   2.45233333333333E+00   2.45233333333333E+00   0.00000000000000E+00   0.00000000000000E+00
      2.63591332327892E-15   4.54918556997307E-20   2.63595881513462E-15   5.18098450142880E-15   1.00000000000000E+00
      1.00000000000000E+00   0.00000000000000E+00   0.00000000000000E+00   0.00000000000000E+00   0.00000000000000E+00
      0.00000000000000E+00   1.06110399509606E-15
      8.42444444444445E-01
      0.00000000000000E+00   0.00000000000000E+00   0.00000000000000E+00   0.00000000000000E+00  -4.20590257589332E-20
     -2.56884353155725E-15  -2.56888559058301E-15  -8.31400435767349E-15   0.00000000000000E+00   0.00000000000000E+00
      0.00000000000000E+00   0.00000000000000E+00  -7.31906415046799E-17  -1.51740522619197E-27  -7.31906415061973E-17
      1.99817441708267E-15   2.52733333333333E+00   2.52733333333333E+00   0.00000000000000E+00   0.00000000000000E+00
      2.64203073534008E-15   4.54967491237573E-20   2.64207623208921E-15   5.26047454096895E-15   1.00000000000000E+00
      1.00000000000000E+00   0.00000000000000E+00   0.00000000000000E+00   0.00000000000000E+00   0.00000000000000E+00
      0.00000000000000E+00   1.05535539962186E-15
      8.67444444444445E-01
      0.00000000000000E+00   0.00000000000000E+00   0.00000000000000E+00   0.00000000000000E+00  -1.32281968332732E-19