DF-ISE text

Info {
  version   = 1.0
  type      = xyplot
  datasets  = [
    "time"
    "substrate OuterVoltage" "substrate InnerVoltage" "substrate QuasiFermiPotential" "substrate DisplacementCurrent" "substrate eCurrent"
    "substrate hCurrent" "substrate TotalCurrent" "substrate Charge" "source OuterVoltage" "source InnerVoltage"
    "source QuasiFermiPotential" "source DisplacementCurrent" "source eCurrent" "source hCurrent" "source TotalCurrent"
    "source Charge" "drain OuterVoltage" "drain InnerVoltage" "drain QuasiFermiPotential" "drain DisplacementCurrent"
    "drain eCurrent" "drain hCurrent" "drain TotalCurrent" "drain Charge" "gate OuterVoltage"
    "gate InnerVoltage" "gate QuasiFermiPotential" "gate DisplacementCurrent" "gate eCurrent" "gate hCurrent"
    "gate TotalCurrent" "gate Charge" ]
  functions = [
    Time
    OuterVoltage InnerVoltage QuasiFermiPotential DisplacementCurrent eCurrent
    hCurrent TotalCurrent Charge OuterVoltage InnerVoltage
    QuasiFermiPotential DisplacementCurrent eCurrent hCurrent TotalCurrent
    Charge OuterVoltage InnerVoltage QuasiFermiPotential DisplacementCurrent
    eCurrent hCurrent TotalCurrent Charge OuterVoltage
    InnerVoltage QuasiFermiPotential DisplacementCurrent eCurrent hCurrent
    TotalCurrent Charge ]
}

Data {
      0.00000000000000E+00
      0.00000000000000E+00   0.00000000000000E+00   0.00000000000000E+00   0.00000000000000E+00  -7.11875023527782E-20
     -2.82547840555729E-24  -7.11903278311837E-20  -4.19198744860842E-15   0.00000000000000E+00   0.00000000000000E+00
      0.00000000000000E+00   0.00000000000000E+00   3.84284004558810E-20   1.94120730468439E-24   3.84303416631857E-20
      1.94687615579033E-15   0.00000000000000E+00   0.00000000000000E+00   0.00000000000000E+00   0.00000000000000E+00
      3.27591018968657E-20   8.84271132370690E-25   3.27599861679981E-20   1.94687615579033E-15   0.00000000000000E+00
      0.00000000000000E+00   0.00000000000000E+00   0.00000000000000E+00   0.00000000000000E+00   0.00000000000000E+00
      0.00000000000000E+00   2.98235137027754E-16
      1.00000000000000E-02
      0.00000000000000E+00   0.00000000000000E+00   0.00000000000000E+00   0.00000000000000E+00   9.90461205065373E-18
     -3.49697009644927E-17  -2.50650889138390E-17  -4.23597598953898E-15   0.00000000000000E+00   0.00000000000000E+00
      0.00000000000000E+00   0.00000000000000E+00  -1.29641463059139E-19  -2.95183233976454E-24  -1.29644414891479E-19
      1.94687615579031E-15   3.00000000000000E-02   3.00000000000000E-02   0.00000000000000E+00   0.00000000000000E+00
      2.51749506742585E-17   1.97826544719631E-20   2.51947333287305E-17   1.99309947931304E-15   0.00000000000000E+00
      0.00000000000000E+00   0.00000000000000E+00   0.00000000000000E+00   0.00000000000000E+00   0.00000000000000E+00
      0.00000000000000E+00   2.96000354435622E-16
      2.33333333333333E-02
      0.00000000000000E+00   0.00000000000000E+00   0.00000000000000E+00   0.00000000000000E+00  -7.24753317746491E-20
     -6.73159963372147E-17  -6.73884716689893E-17  -4.29427583063029E-15   0.00000000000000E+00   0.00000000000000E+00
      0.00000000000000E+00   0.00000000000000E+00  -1.09141573159962E-19   2.93778266892522E-24  -1.09138635377293E-19
      1.94687615579030E-15   7.00000000000000E-02   7.00000000000000E-02   0.00000000000000E+00   0.00000000000000E+00
      6.74743291968667E-17   2.32811074999292E-20   6.74976103043666E-17   2.05435476831862E-15   0.00000000000000E+00
      0.00000000000000E+00   0.00000000000000E+00   0.00000000000000E+00   0.00000000000000E+00   0.00000000000000E+00
      0.00000000000000E+00   2.93044906521376E-16
      4.24444444444445E-02
      0.00000000000000E+00   0.00000000000000E+00   0.00000000000000E+00   0.00000000000000E+00  -9.08159064132378E-20
     -1.09754083070766E-16  -1.09844898977179E-16  -4.37718495664919E-15   0.00000000000000E+00   0.00000000000000E+00
      0.00000000000000E+00   0.00000000000000E+00  -1.32013778376856E-19   1.11711299446992E-25  -1.32013666665557E-19
      1.94687615579027E-15   1.27333333333333E-01   1.27333333333333E-01   0.00000000000000E+00   0.00000000000000E+00
      1.09916367917855E-16   6.05447259899355E-20   1.09976912643845E-16   2.14145311316173E-15   0.00000000000000E+00
      0.00000000000000E+00   0.00000000000000E+00   0.00000000000000E+00   0.00000000000000E+00   0.00000000000000E+00
      0.00000000000000E+00   2.88855687697189E-16
      6.74444444444444E-02
      0.00000000000000E+00   0.00000000000000E+00   0.00000000000000E+00   0.00000000000000E+00  -5.06995549037408E-20
     -1.81454590563749E-16  -1.81505290118653E-16  -4.48452396890398E-15   0.00000000000000E+00   0.00000000000000E+00
      0.00000000000000E+00   0.00000000000000E+00  -1.48782213950512E-19  -2.56555996603703E-24  -1.48784779510478E-19
      1.94687615579024E-15   2.02333333333333E-01   2.02333333333333E-01   0.00000000000000E+00   0.00000000000000E+00
      1.81605537694502E-16   4.85372036609385E-20   1.81654074898163E-16   2.25420286769284E-15   0.00000000000000E+00
      0.00000000000000E+00   0.00000000000000E+00   0.00000000000000E+00   0.00000000000000E+00   0.00000000000000E+00
      0.00000000000000E+00   2.83444945420899E-16
      9.24444444444444E-02
      0.00000000000000E+00   0.00000000000000E+00   0.00000000000000E+00   0.00000000000000E+00  -5.75659062387986E-20
     -2.83329419806638E-16  -2.83386985712877E-16  -4.59059440254036E-15   0.00000000000000E+00   0.00000000000000E+00
      0.00000000000000E+00   0.00000000000000E+00  -1.52988225128308E-19   6.68913992129706E-25  -1.52987556214316E-19
      1.94687615579019E-15   2.77333333333333E-01   2.77333333333333E-01   0.00000000000000E+00   0.00000000000000E+00
      2.83497633181288E-16   4.23400878026741E-20   2.83539973269091E-16   2.36563498151007E-15   0.00000000000000E+00
      0.00000000000000E+00   0.00000000000000E+00   0.00000000000000E+00   0.00000000000000E+00   0.00000000000000E+00
      0.00000000000000E+00   2.78083265240083E-16
      1.17444444444444E-01
      0.00000000000000E+00   0.00000000000000E+00   0.00000000000000E+00   0.00000000000000E+00  -2.41445167862007E-20
     -4.13301760009227E-16  -4.13325904526013E-16  -4.69532545059344E-15   0.00000000000000E+00   0.00000000000000E+00
      0.00000000000000E+00   0.00000000000000E+00  -1.74836090422289E-19  -2.69872601504506E-24  -1.74838789148304E-19
      1.94687615579013E-15   3.52333333333333E-01   3.52333333333333E-01   0.00000000000000E+00   0.00000000000000E+00
      4.13518546043889E-16  -1.78027287278925E-20   4.13500743315161E-16   2.47570826676929E-15   0.00000000000000E+00
      0.00000000000000E+00   0.00000000000000E+00   0.00000000000000E+00   0.00000000000000E+00   0.00000000000000E+00
      0.00000000000000E+00   2.72741028034021E-16
      1.42444444444444E-01
      0.00000000000000E+00   0.00000000000000E+00   0.00000000000000E+00   0.00000000000000E+00   3.40578193098498E-20
     -5.68450924440475E-16  -5.68416866621165E-16  -4.79855396004425E-15   0.00000000000000E+00   0.00000000000000E+00
      0.00000000000000E+00   0.00000000000000E+00  -1.87055536268791E-19   2.99032184497941E-24  -1.87052545946946E-19
      1.94687615579005E-15   4.27333333333333E-01   4.27333333333333E-01   0.00000000000000E+00   0.00000000000000E+00
      5.68635739901103E-16  -3.18207339891162E-20   5.68603919167113E-16   2.58427804263418E-15   0.00000000000000E+00
      0.00000000000000E+00   0.00000000000000E+00   0.00000000000000E+00   0.00000000000000E+00   0.00000000000000E+00
      0.00000000000000E+00   2.67399761620014E-16
      1.67444444444444E-01
      0.00000000000000E+00   0.00000000000000E+00   0.00000000000000E+00   0.00000000000000E+00  -4.88474301901401E-20
     -7.63195420522772E-16  -7.63244267952963E-16  -4.89999732218213E-15   0.00000000000000E+00   0.00000000000000E+00
      0.00000000000000E+00   0.00000000000000E+00  -1.63706240047571E-19   6.15494481105488E-24  -1.63700085102760E-19
      1.94687615578996E-15   5.02333333333333E-01   5.02333333333333E-01   0.00000000000000E+00   0.00000000000000E+00
      7.63131882530094E-16   2.76085507971524E-19   7.63407968038065E-16   2.69107057156462E-15   0.00000000000000E+00
      0.00000000000000E+00   0.00000000000000E+00   0.00000000000000E+00   0.00000000000000E+00   0.00000000000000E+00
      0.00000000000000E+00   2.62050594827538E-16
      1.92444444444444E-01
      0.00000000000000E+00   0.00000000000000E+00   0.00000000000000E+00   0.00000000000000E+00  -2.43361849133996E-20
     -1.00241645114946E-15  -1.00244078733437E-15  -4.99923559477783E-15   0.00000000000000E+00   0.00000000000000E+00
      0.00000000000000E+00   0.00000000000000E+00  -1.87289403429519E-19   6.42904622251225E-24  -1.87282974383297E-19
      1.94687615578985E-15   5.77333333333333E-01   5.77333333333333E-01   0.00000000000000E+00   0.00000000000000E+00
      1.00259890802107E-15   2.91622876915561E-20   1.00262807030876E-15   2.79566932905183E-15   0.00000000000000E+00
      0.00000000000000E+00   0.00000000000000E+00   0.00000000000000E+00   0.00000000000000E+00   0.00000000000000E+00
      0.00000000000000E+00   2.56690109936144E-16
      2.17444444444444E-01
      0.00000000000000E+00   0.00000000000000E+00   0.00000000000000E+00   0.00000000000000E+00  -4.62084620225356E-20
     -1.22866115813733E-15  -1.22870736659935E-15  -5.09573595955817E-15   0.00000000000000E+00   0.00000000000000E+00
      0.00000000000000E+00   0.00000000000000E+00  -1.54800585910981E-19  -2.87200220964781E-24  -1.54803457913191E-19
      1.94687615578975E-15   6.52333333333333E-01   6.52333333333333E-01   0.00000000000000E+00   0.00000000000000E+00
      1.22881916621477E-15   4.30038424976337E-20   1.22886217005727E-15   2.89754232745078E-15   0.00000000000000E+00
      0.00000000000000E+00   0.00000000000000E+00   0.00000000000000E+00   0.00000000000000E+00   0.00000000000000E+00
      0.00000000000000E+00   2.51317476317639E-16
      2.42444444444444E-01
      0.00000000000000E+00   0.00000000000000E+00   0.00000000000000E+00   0.00000000000000E+00  -1.02494314196214E-19
     -1.37777152646975E-15  -1.37787402078394E-15  -5.18899061495892E-15   0.00000000000000E+00   0.00000000000000E+00
      0.00000000000000E+00   0.00000000000000E+00  -1.09984697907955E-19   4.04530529826688E-24  -1.09980652602656E-19
      1.94687615578968E-15   7.27333333333333E-01   7.27333333333333E-01   0.00000000000000E+00   0.00000000000000E+00
      1.37857785104782E-15  -5.93849611271577E-19   1.37798400143655E-15   2.99618150189636E-15   0.00000000000000E+00
      0.00000000000000E+00   0.00000000000000E+00   0.00000000000000E+00   0.00000000000000E+00   0.00000000000000E+00
      0.00000000000000E+00   2.45932957272888E-16
      2.67444444444444E-01
      0.00000000000000E+00   0.00000000000000E+00   0.00000000000000E+00   0.00000000000000E+00  -9.32743187761266E-20
     -1.46271481732383E-15  -1.46280809164261E-15  -5.27880521549814E-15   0.00000000000000E+00   0.00000000000000E+00
      0.00000000000000E+00   0.00000000000000E+00  -1.22137499377903E-19  -7.70523491146330E-25  -1.22138269901394E-19
      1.94687615578964E-15   8.02333333333333E-01   8.02333333333333E-01   0.00000000000000E+00   0.00000000000000E+00
      1.46304522648549E-15  -1.14996572978368E-19   1.46293022991251E-15   3.09139185058948E-15   0.00000000000000E+00
      0.00000000000000E+00   0.00000000000000E+00   0.00000000000000E+00   0.00000000000000E+00   0.00000000000000E+00
      0.00000000000000E+00   2.40537209119009E-16
      2.92444444444444E-01
      0.00000000000000E+00   0.00000000000000E+00   0.00000000000000E+00   0.00000000000000E+00  -1.55148429322862E-20
     -1.51329764905070E-15  -1.51331316389363E-15  -5.36554319524025E-15   0.00000000000000E+00   0.00000000000000E+00
      0.00000000000000E+00   0.00000000000000E+00  -1.98140591830245E-19  -1.13300700347795E-24  -1.98141724837249E-19
      1.94687615578961E-15   8.77333333333333E-01   8.77333333333333E-01   0.00000000000000E+00   0.00000000000000E+00
      1.51348148386031E-15   2.98217581579599E-20   1.51351130561847E-15   3.18353606658882E-15   0.00000000000000E+00
      0.00000000000000E+00   0.00000000000000E+00   0.00000000000000E+00   0.00000000000000E+00   0.00000000000000E+00
      0.00000000000000E+00   2.35130972861827E-16
      3.17444444444444E-01
      0.00000000000000E+00   0.00000000000000E+00   0.00000000000000E+00   0.00000000000000E+00  -7.53151531394548E-20
     -1.54532894207894E-15  -1.54540425723208E-15  -5.44999497756940E-15   0.00000000000000E+00   0.00000000000000E+00
      0.00000000000000E+00   0.00000000000000E+00  -1.38622618379173E-19   3.89675350042251E-24  -1.38618721625673E-19
      1.94687615578960E-15   9.52333333333333E-01   9.52333333333333E-01   0.00000000000000E+00   0.00000000000000E+00
      1.54541958898176E-15   1.23286971937318E-19   1.54554287595370E-15   3.27340387443161E-15   0.00000000000000E+00
      0.00000000000000E+00   0.00000000000000E+00   0.00000000000000E+00   0.00000000000000E+00   0.00000000000000E+00
      0.00000000000000E+00   2.29714947348207E-16
      3.42444444444444E-01
      0.00000000000000E+00   0.00000000000000E+00   0.00000000000000E+00   0.00000000000000E+00  -7.96505091934784E-20
     -1.56828387416212E-15  -1.56836352467131E-15  -5.53296479295591E-15   0.00000000000000E+00   0.00000000000000E+00
      0.00000000000000E+00   0.00000000000000E+00  -1.34366358138510E-19  -3.05305864814089E-24  -1.34369411197158E-19
      1.94687615578958E-15   1.02733333333333E+00   1.02733333333333E+00   0.00000000000000E+00   0.00000000000000E+00
      1.56843523131632E-15   6.26627661891205E-20   1.56849789408251E-15   3.36179889845081E-15   0.00000000000000E+00
      0.00000000000000E+00   0.00000000000000E+00   0.00000000000000E+00   0.00000000000000E+00   0.00000000000000E+00
      0.00000000000000E+00   2.24289738715512E-16
      3.67444444444445E-01
      0.00000000000000E+00   0.00000000000000E+00   0.00000000000000E+00   0.00000000000000E+00  -7.02672621988483E-20
     -1.58895463312828E-15  -1.58902490039048E-15  -5.61500946646765E-15   0.00000000000000E+00   0.00000000000000E+00
      0.00000000000000E+00   0.00000000000000E+00  -1.44089906616175E-19  -4.69739661365986E-24  -1.44094604012789E-19
      1.94687615578957E-15   1.10233333333333E+00   1.10233333333333E+00   0.00000000000000E+00   0.00000000000000E+00
      1.58911656949043E-15   5.24255040605798E-20   1.58916899499449E-15   3.44927747494089E-15   0.00000000000000E+00
      0.00000000000000E+00   0.00000000000000E+00   0.00000000000000E+00   0.00000000000000E+00   0.00000000000000E+00
      0.00000000000000E+00   2.18855835737192E-16
      3.92444444444445E-01
      0.00000000000000E+00   0.00000000000000E+00   0.00000000000000E+00   0.00000000000000E+00  -6.42866826592421E-20
     -1.60955388518169E-15  -1.60961817186435E-15  -5.69643695508599E-15   0.00000000000000E+00   0.00000000000000E+00
      0.00000000000000E+00   0.00000000000000E+00  -1.50459202769900E-19  -2.89237768704969E-24  -1.50462095147587E-19
      1.94687615578956E-15   1.17733333333333E+00   1.17733333333333E+00   0.00000000000000E+00   0.00000000000000E+00
      1.60971089618447E-15   5.77377750335863E-20   1.60976863395950E-15   3.53614720872897E-15   0.00000000000000E+00
      0.00000000000000E+00   0.00000000000000E+00   0.00000000000000E+00   0.00000000000000E+00   0.00000000000000E+00
      0.00000000000000E+00   2.13413590567472E-16
      4.17444444444445E-01
      0.00000000000000E+00   0.00000000000000E+00   0.00000000000000E+00   0.00000000000000E+00  -6.45609660582579E-20
     -1.62887940324373E-15  -1.62894396420979E-15  -5.77739689050706E-15   0.00000000000000E+00   0.00000000000000E+00
      0.00000000000000E+00   0.00000000000000E+00  -1.50442082261646E-19  -4.72911977128184E-24  -1.50446811381417E-19
      1.94687615578955E-15   1.25233333333333E+00   1.25233333333333E+00   0.00000000000000E+00   0.00000000000000E+00
      1.62887394446977E-15   2.20466551396517E-19   1.62909441102117E-15   3.62255753534258E-15   0.00000000000000E+00
      0.00000000000000E+00   0.00000000000000E+00   0.00000000000000E+00   0.00000000000000E+00   0.00000000000000E+00
      0.00000000000000E+00   2.07963199374936E-16
      4.42444444444445E-01
      0.00000000000000E+00   0.00000000000000E+00   0.00000000000000E+00   0.00000000000000E+00  -6.89087701695395E-20
     -1.64549461193822E-15  -1.64556352070839E-15  -5.85795541885826E-15   0.00000000000000E+00   0.00000000000000E+00
      0.00000000000000E+00   0.00000000000000E+00  -1.46331712278072E-19  -1.91311036804375E-24  -1.46333625388440E-19
      1.94687615578954E-15   1.32733333333333E+00   1.32733333333333E+00   0.00000000000000E+00   0.00000000000000E+00
      1.64564509838016E-15   6.47559536194011E-20   1.64570985433378E-15   3.70857458227517E-15   0.00000000000000E+00
      0.00000000000000E+00   0.00000000000000E+00   0.00000000000000E+00   0.00000000000000E+00   0.00000000000000E+00
      0.00000000000000E+00   2.02504680793549E-16
      4.67444444444445E-01
      0.00000000000000E+00   0.00000000000000E+00   0.00000000000000E+00   0.00000000000000E+00  -6.56908653392083E-20
     -1.66130254540772E-15  -1.66136823627306E-15  -5.93813656696385E-15   0.00000000000000E+00   0.00000000000000E+00
      0.00000000000000E+00   0.00000000000000E+00  -1.49814430381956E-19  -1.26821849788420E-24  -1.49815698600454E-19
      1.94687615578953E-15   1.40233333333333E+00   1.40233333333333E+00   0.00000000000000E+00   0.00000000000000E+00
      1.66147550411526E-15   4.25478563989595E-20   1.66151805197166E-15   3.79422255383696E-15   0.00000000000000E+00
      0.00000000000000E+00   0.00000000000000E+00   0.00000000000000E+00   0.00000000000000E+00   0.00000000000000E+00
      0.00000000000000E+00   1.97037857337359E-16
      4.92444444444445E-01
      0.00000000000000E+00   0.00000000000000E+00   0.00000000000000E+00   0.00000000000000E+00  -5.41694460615321E-20
     -1.67788252578173E-15  -1.67793669522780E-15  -6.01794132530758E-15   0.00000000000000E+00   0.00000000000000E+00
      0.00000000000000E+00   0.00000000000000E+00  -1.61580799392838E-19  -9.67316841854082E-25  -1.61581766709679E-19
      1.94687615578952E-15   1.47733333333333E+00   1.47733333333333E+00   0.00000000000000E+00   0.00000000000000E+00
      1.67805575542397E-15   4.25215705367407E-20   1.67809827699451E-15   3.87950280779522E-15   0.00000000000000E+00
      0.00000000000000E+00   0.00000000000000E+00   0.00000000000000E+00   0.00000000000000E+00   0.00000000000000E+00
      0.00000000000000E+00   1.91562361722836E-16
      5.17444444444445E-01
      0.00000000000000E+00   0.00000000000000E+00   0.00000000000000E+00   0.00000000000000E+00  -5.37826361629274E-20
     -1.69475312540959E-15  -1.69480690804575E-15  -6.09735788505052E-15   0.00000000000000E+00   0.00000000000000E+00
      0.00000000000000E+00   0.00000000000000E+00  -1.62210732302721E-19   5.53526320144071E-24  -1.62205197039519E-19
      1.94687615578952E-15   1.55233333333333E+00   1.55233333333333E+00   0.00000000000000E+00   0.00000000000000E+00
      1.69492658433340E-15   4.25289093866113E-20   1.69496911324279E-15   3.96440403783005E-15   0.00000000000000E+00
      0.00000000000000E+00   0.00000000000000E+00   0.00000000000000E+00   0.00000000000000E+00   0.00000000000000E+00
      0.00000000000000E+00   1.86077691430970E-16
      5.42444444444445E-01
      0.00000000000000E+00   0.00000000000000E+00   0.00000000000000E+00   0.00000000000000E+00  -5.20531556747531E-20
     -1.71336778234000E-15  -1.71341983549567E-15  -6.17637054307819E-15   0.00000000000000E+00   0.00000000000000E+00
      0.00000000000000E+00   0.00000000000000E+00  -1.64181906035870E-19  -8.14108157371016E-25  -1.64182720144027E-19
      1.94687615578951E-15   1.62733333333333E+00   1.62733333333333E+00   0.00000000000000E+00   0.00000000000000E+00
      1.71354148226922E-15   4.25359465972416E-20   1.71358401821581E-15   4.04891107828908E-15   0.00000000000000E+00
      0.00000000000000E+00   0.00000000000000E+00   0.00000000000000E+00   0.00000000000000E+00   0.00000000000000E+00
      0.00000000000000E+00   1.80583308999620E-16
      5.67444444444445E-01
      0.00000000000000E+00   0.00000000000000E+00   0.00000000000000E+00   0.00000000000000E+00  -5.46886338391268E-20
     -1.74197608350693E-15  -1.74203077214077E-15  -6.25496739271755E-15   0.00000000000000E+00   0.00000000000000E+00
      0.00000000000000E+00   0.00000000000000E+00  -1.61786885748467E-19  -2.05613265834588E-24  -1.61788941881125E-19
      1.94687615578949E-15   1.70233333333333E+00   1.70233333333333E+00   0.00000000000000E+00   0.00000000000000E+00
      1.74215001837337E-15   4.25427092742669E-20   1.74219256108265E-15   4.13301248285362E-15   0.00000000000000E+00
      0.00000000000000E+00   0.00000000000000E+00   0.00000000000000E+00   0.00000000000000E+00   0.00000000000000E+00
      0.00000000000000E+00   1.75078754074441E-16
      5.92444444444445E-01
      0.00000000000000E+00   0.00000000000000E+00   0.00000000000000E+00   0.00000000000000E+00  -1.02359774382403E-19
     -1.79542731565306E-15  -1.79552967542745E-15  -6.33314218594095E-15   0.00000000000000E+00   0.00000000000000E+00
      0.00000000000000E+00   0.00000000000000E+00  -1.14355846522338E-19   9.14664166492657E-25  -1.14354931858171E-19
      1.94687615578947E-15   1.77733333333333E+00   1.77733333333333E+00   0.00000000000000E+00   0.00000000000000E+00
      1.79560148113714E-15   4.25492221653956E-20   1.79564403035930E-15   4.21670231238655E-15   0.00000000000000E+00
      0.00000000000000E+00   0.00000000000000E+00   0.00000000000000E+00   0.00000000000000E+00   0.00000000000000E+00
      0.00000000000000E+00   1.69563717764945E-16
      6.17444444444445E-01
      0.00000000000000E+00   0.00000000000000E+00   0.00000000000000E+00   0.00000000000000E+00  -9.09521137501456E-20
     -1.88792177530288E-15  -1.88801272741663E-15  -6.41088770939114E-15   0.00000000000000E+00   0.00000000000000E+00
      0.00000000000000E+00   0.00000000000000E+00  -1.26005032304239E-19   1.96605137533983E-24  -1.26003066252864E-19
      1.94687615578943E-15   1.85233333333333E+00   1.85233333333333E+00   0.00000000000000E+00   0.00000000000000E+00
      1.88809617497753E-15   4.25555053532433E-20   1.88813873048289E-15   4.29997350603933E-15   0.00000000000000E+00
      0.00000000000000E+00   0.00000000000000E+00   0.00000000000000E+00   0.00000000000000E+00   0.00000000000000E+00
      0.00000000000000E+00   1.64038047562399E-16
      6.42444444444445E-01
      0.00000000000000E+00   0.00000000000000E+00   0.00000000000000E+00   0.00000000000000E+00  -9.24008917918859E-20
     -2.01189744843051E-15  -2.01198984932230E-15  -6.48818460220240E-15   0.00000000000000E+00   0.00000000000000E+00
      0.00000000000000E+00   0.00000000000000E+00  -1.24771727237577E-19   5.20809706851476E-26  -1.24771675156607E-19
      1.94687615578942E-15   1.92733333333333E+00   1.92733333333333E+00   0.00000000000000E+00   0.00000000000000E+00
      2.01207206182882E-15   4.25591686353379E-20   2.01211462099746E-15   4.38280674873989E-15   0.00000000000000E+00
      0.00000000000000E+00   0.00000000000000E+00   0.00000000000000E+00   0.00000000000000E+00   0.00000000000000E+00
      0.00000000000000E+00   1.58501697673100E-16
      6.67444444444445E-01
      0.00000000000000E+00   0.00000000000000E+00   0.00000000000000E+00   0.00000000000000E+00  -3.73669738983737E-20
     -2.12954520600134E-15  -2.12958257297524E-15  -6.56499146405293E-15   0.00000000000000E+00   0.00000000000000E+00
      0.00000000000000E+00   0.00000000000000E+00  -1.79972277894709E-19  -3.39234322758954E-25  -1.79972617129032E-19
      1.94687615578944E-15   2.00233333333333E+00   2.00233333333333E+00   0.00000000000000E+00   0.00000000000000E+00
      2.12971999418416E-15   4.25514081999863E-20   2.12976254559236E-15   4.46516063988345E-15   0.00000000000000E+00
      0.00000000000000E+00   0.00000000000000E+00   0.00000000000000E+00   0.00000000000000E+00   0.00000000000000E+00
      0.00000000000000E+00   1.52954668380049E-16
      6.92444444444445E-01
      0.00000000000000E+00   0.00000000000000E+00   0.00000000000000E+00   0.00000000000000E+00  -5.96847605367278E-20
     -2.20991204446472E-15  -2.20997172922526E-15  -6.64123784549600E-15   0.00000000000000E+00   0.00000000000000E+00
      0.00000000000000E+00   0.00000000000000E+00  -1.57702174030840E-19   4.26761278404882E-25  -1.57701747269562E-19
      1.94687615578951E-15   2.07733333333333E+00   2.07733333333333E+00   0.00000000000000E+00   0.00000000000000E+00
      2.21008692085475E-15   4.25101177722802E-20   2.21012943097253E-15   4.54696472502359E-15   0.00000000000000E+00
      0.00000000000000E+00   0.00000000000000E+00   0.00000000000000E+00   0.00000000000000E+00   0.00000000000000E+00
      0.00000000000000E+00   1.47396964682901E-16
      7.17444444444445E-01
      0.00000000000000E+00   0.00000000000000E+00   0.00000000000000E+00   0.00000000000000E+00  -7.17340708071102E-20
     -2.25501734678512E-15  -2.25508908085593E-15  -6.71681833901762E-15   0.00000000000000E+00   0.00000000000000E+00
      0.00000000000000E+00   0.00000000000000E+00  -1.45746248476050E-19  -5.31273500385973E-24  -1.45751561211054E-19
      1.94687615578971E-15   2.15233333333333E+00   2.15233333333333E+00   0.00000000000000E+00   0.00000000000000E+00
      2.25519237826960E-15   4.24541475409002E-20   2.25523483241714E-15   4.62811360421787E-15   0.00000000000000E+00
      0.00000000000000E+00   0.00000000000000E+00   0.00000000000000E+00   0.00000000000000E+00   0.00000000000000E+00
      0.00000000000000E+00   1.41828579010038E-16
      7.42444444444445E-01
      0.00000000000000E+00   0.00000000000000E+00   0.00000000000000E+00   0.00000000000000E+00  -8.07790611214315E-20
     -2.28107879912510E-15  -2.28115957818623E-15  -6.79158652907348E-15   0.00000000000000E+00   0.00000000000000E+00
      0.00000000000000E+00   0.00000000000000E+00  -1.37046810200930E-19   6.29242506661214E-24  -1.37040517775863E-19
      1.94687615579012E-15   2.22733333333333E+00   2.22733333333333E+00   0.00000000000000E+00   0.00000000000000E+00
      2.28125413101577E-15   4.24876882345477E-20   2.28129661870401E-15   4.70846088264939E-15   0.00000000000000E+00
      0.00000000000000E+00   0.00000000000000E+00   0.00000000000000E+00   0.00000000000000E+00   0.00000000000000E+00
      0.00000000000000E+00   1.36249490633981E-16
      7.67444444444445E-01
      0.00000000000000E+00   0.00000000000000E+00   0.00000000000000E+00   0.00000000000000E+00  -9.18091811312830E-20
     -2.29960249731164E-15  -2.29969430649277E-15  -6.86535097497404E-15   0.00000000000000E+00   0.00000000000000E+00
      0.00000000000000E+00   0.00000000000000E+00  -1.26662356342420E-19   1.90052028816236E-24  -1.26660455822132E-19
      1.94687615578924E-15   2.30233333333333E+00   2.30233333333333E+00   0.00000000000000E+00   0.00000000000000E+00
      2.29977837792686E-15   4.25890217374846E-20   2.29982096694860E-15   4.78781514574661E-15   0.00000000000000E+00
      0.00000000000000E+00   0.00000000000000E+00   0.00000000000000E+00   0.00000000000000E+00   0.00000000000000E+00
      0.00000000000000E+00   1.30659673438193E-16
      7.92444444444445E-01
      0.00000000000000E+00   0.00000000000000E+00   0.00000000000000E+00   0.00000000000000E+00  -9.32334400960224E-20
     -2.31508295933063E-15  -2.31517619277072E-15  -6.93788171523054E-15   0.00000000000000E+00   0.00000000000000E+00
      0.00000000000000E+00   0.00000000000000E+00  -1.25499398764719E-19   4.26518156624195E-24  -1.25495133583152E-19
      1.94687615578923E-15   2.37733333333333E+00   2.37733333333333E+00   0.00000000000000E+00   0.00000000000000E+00
      2.31525909397077E-15   4.25939335284675E-20   2.31530168790430E-15   4.86594645345654E-15   0.00000000000000E+00
      0.00000000000000E+00   0.00000000000000E+00   0.00000000000000E+00   0.00000000000000E+00   0.00000000000000E+00
      0.00000000000000E+00   1.25059105984768E-16
      8.17444444444445E-01
      0.00000000000000E+00   0.00000000000000E+00   0.00000000000000E+00   0.00000000000000E+00  -4.48648845304424E-20
     -2.32960281004086E-15  -2.32964767492539E-15  -7.00894428582629E-15   0.00000000000000E+00   0.00000000000000E+00
      0.00000000000000E+00   0.00000000000000E+00  -1.74130898501358E-19   2.07347167747818E-24  -1.74128825029681E-19
      1.94687615578922E-15   2.45233333333333E+00   2.45233333333333E+00   0.00000000000000E+00   0.00000000000000E+00
      2.32977920511300E-15   4.25986374197857E-20   2.32982180375042E-15   4.94262034975104E-15   0.00000000000000E+00
      0.00000000000000E+00   0.00000000000000E+00   0.00000000000000E+00   0.00000000000000E+00   0.00000000000000E+00
      0.00000000000000E+00   1.19447780286042E-16
      8.42444444444445E-01
      0.00000000000000E+00   0.00000000000000E+00   0.00000000000000E+00   0.00000000000000E+00  -2.70747191683796E-20
     -2.34461095518630E-15  -2.34463802990547E-15  -7.07837711326560E-15   0.00000000000000E+00   0.00000000000000E+00
      0.00000000000000E+00   0.00000000000000E+00  -1.92184514595956E-19   2.98981024679617E-24  -1.92181524785709E-19
      1.94687615578921E-15   2.52733333333333E+00   2.52733333333333E+00   0.00000000000000E+00   0.00000000000000E+00
      2.34478760830067E-15   4.26031295863012E-20   2.34483021143026E-15   5.01767524968659E-15   0.00000000000000E+00
      0.00000000000000E+00   0.00000000000000E+00   0.00000000000000E+00   0.00000000000000E+00   0.00000000000000E+00
      0.00000000000000E+00   1.13825707789803E-16
      8.67444444444445E-01
      0.00000000000000E+00   0.00000000000000E+00   0.00000000000000E+00   0.00000000000000E+00  -8.15673929254311E-20