DF-ISE text

Info {
  version   = 1.0
  type      = xyplot
  datasets  = [
    "time"
    "substrate OuterVoltage" "substrate InnerVoltage" "substrate QuasiFermiPotential" "substrate DisplacementCurrent" "substrate eCurrent"
    "substrate hCurrent" "substrate TotalCurrent" "substrate Charge" "source OuterVoltage" "source InnerVoltage"
    "source QuasiFermiPotential" "source DisplacementCurrent" "source eCurrent" "source hCurrent" "source TotalCurrent"
    "source Charge" "drain OuterVoltage" "drain InnerVoltage" "drain QuasiFermiPotential" "drain DisplacementCurrent"
    "drain eCurrent" "drain hCurrent" "drain TotalCurrent" "drain Charge" "gate OuterVoltage"
    "gate InnerVoltage" "gate QuasiFermiPotential" "gate DisplacementCurrent" "gate eCurrent" "gate hCurrent"
    "gate TotalCurrent" "gate Charge" ]
  functions = [
    Time
    OuterVoltage InnerVoltage QuasiFermiPotential DisplacementCurrent eCurrent
    hCurrent TotalCurrent Charge OuterVoltage InnerVoltage
    QuasiFermiPotential DisplacementCurrent eCurrent hCurrent TotalCurrent
    Charge OuterVoltage InnerVoltage QuasiFermiPotential DisplacementCurrent
    eCurrent hCurrent TotalCurrent Charge OuterVoltage
    InnerVoltage QuasiFermiPotential DisplacementCurrent eCurrent hCurrent
    TotalCurrent Charge ]
}

Data {
      0.00000000000000E+00
      0.00000000000000E+00   0.00000000000000E+00   0.00000000000000E+00   0.00000000000000E+00   3.50917604168496E-20
     -2.69889574073434E-29   3.50917603898607E-20  -1.45274800338122E-15   0.00000000000000E+00   0.00000000000000E+00
      0.00000000000000E+00   0.00000000000000E+00  -1.67615012543071E-20  -6.79008208328879E-29  -1.67615013222079E-20
      7.94261118991834E-16   0.00000000000000E+00   0.00000000000000E+00   0.00000000000000E+00   0.00000000000000E+00
     -1.83302591628065E-20   9.51537137643277E-29  -1.83302590676528E-20   7.94261118991834E-16   0.00000000000000E+00
      0.00000000000000E+00   0.00000000000000E+00   0.00000000000000E+00   0.00000000000000E+00   0.00000000000000E+00
      0.00000000000000E+00  -1.35774234602451E-16
      1.00000000000000E-02
      0.00000000000000E+00   0.00000000000000E+00   0.00000000000000E+00   0.00000000000000E+00   2.30192597685345E-17
     -1.89486643623747E-17   4.07059540615977E-18  -1.46679233335537E-15   0.00000000000000E+00   0.00000000000000E+00
      0.00000000000000E+00   0.00000000000000E+00  -1.58758734508791E-11  -7.08499241699270E-28  -1.58758734508791E-11
      7.92395583102986E-16   3.00000000000000E-02   3.00000000000000E-02   0.00000000000000E+00   0.00000000000000E+00
      1.58758693741518E-11   6.13187124607443E-21   1.58758693802837E-11   8.14749606156996E-16   0.00000000000000E+00
      0.00000000000000E+00   0.00000000000000E+00   0.00000000000000E+00   0.00000000000000E+00   0.00000000000000E+00
      0.00000000000000E+00  -1.40352855904613E-16
      2.33333333333333E-02
      0.00000000000000E+00   0.00000000000000E+00   0.00000000000000E+00   0.00000000000000E+00  -1.13324098038384E-20
     -3.42045337856877E-17  -3.42158661954915E-17  -1.48531103328640E-15   0.00000000000000E+00   0.00000000000000E+00
      0.00000000000000E+00   0.00000000000000E+00  -2.56387896595052E-11  -1.93798479228232E-27  -2.56387896595052E-11
      7.89888355716076E-16   7.00000000000000E-02   7.00000000000000E-02   0.00000000000000E+00   0.00000000000000E+00
      2.56388238653854E-11   9.98597334166673E-21   2.56388238753713E-11   8.41873853249199E-16   0.00000000000000E+00
      0.00000000000000E+00   0.00000000000000E+00   0.00000000000000E+00   0.00000000000000E+00   0.00000000000000E+00
      0.00000000000000E+00  -1.46451175678882E-16
      4.15555555555556E-02
      0.00000000000000E+00   0.00000000000000E+00   0.00000000000000E+00   0.00000000000000E+00   4.00177666460953E-20
     -4.92694053095888E-17  -4.92293875429427E-17  -1.51026782172995E-15   0.00000000000000E+00   0.00000000000000E+00
      0.00000000000000E+00   0.00000000000000E+00  -4.41163670921326E-11  -4.77209163241449E-27  -4.41163670921326E-11
      7.86427521289383E-16   1.24666666666667E-01   1.24666666666667E-01   0.00000000000000E+00   0.00000000000000E+00
      4.41164163092367E-11   1.22834459711545E-20   4.41164163215202E-11   8.78613866219512E-16   0.00000000000000E+00
      0.00000000000000E+00   0.00000000000000E+00   0.00000000000000E+00   0.00000000000000E+00   0.00000000000000E+00
      0.00000000000000E+00  -1.54773565778946E-16
      6.65555555555556E-02
      0.00000000000000E+00   0.00000000000000E+00   0.00000000000000E+00   0.00000000000000E+00  -1.13809735270654E-22
     -6.87489066085583E-17  -6.87490204182936E-17  -1.54389927598936E-15   0.00000000000000E+00   0.00000000000000E+00
      0.00000000000000E+00   0.00000000000000E+00  -1.22207559150413E-10  -8.47828347783125E-27  -1.22207559150413E-10
      7.81619563785352E-16   1.99666666666667E-01   1.99666666666667E-01   0.00000000000000E+00   0.00000000000000E+00
      1.22207627893259E-10   6.17537362792345E-21   1.22207627899434E-10   9.28448763297197E-16   0.00000000000000E+00
      0.00000000000000E+00   0.00000000000000E+00   0.00000000000000E+00   0.00000000000000E+00   0.00000000000000E+00
      0.00000000000000E+00  -1.66169051093191E-16
      9.15555555555556E-02
      0.00000000000000E+00   0.00000000000000E+00   0.00000000000000E+00   0.00000000000000E+00  -3.01167953981635E-20
     -9.08908138722525E-17  -9.09209306676507E-17  -1.57687294813715E-15   0.00000000000000E+00   0.00000000000000E+00
      0.00000000000000E+00   0.00000000000000E+00  -3.35214459342451E-10  -1.13468141503023E-26  -3.35214459342451E-10
      7.76747046074881E-16   2.74666666666667E-01   2.74666666666667E-01   0.00000000000000E+00   0.00000000000000E+00
      3.35214550251566E-10   1.18152815256577E-20   3.35214550263381E-10   9.77664493007622E-16   0.00000000000000E+00
      0.00000000000000E+00   0.00000000000000E+00   0.00000000000000E+00   0.00000000000000E+00   0.00000000000000E+00
      0.00000000000000E+00  -1.77538590945351E-16
      1.16555555555556E-01
      0.00000000000000E+00   0.00000000000000E+00   0.00000000000000E+00   0.00000000000000E+00  -1.36313897833660E-20
     -1.15100049209086E-16  -1.15113680598869E-16  -1.60921281511598E-15   0.00000000000000E+00   0.00000000000000E+00
      0.00000000000000E+00   0.00000000000000E+00  -8.46858825553123E-10  -2.08891988919407E-26  -8.46858825553123E-10
      7.71814333704721E-16   3.49666666666667E-01   3.49666666666667E-01   0.00000000000000E+00   0.00000000000000E+00
      8.46858940654830E-10   1.19725983917516E-20   8.46858940666802E-10   1.02628052318711E-15   0.00000000000000E+00
      0.00000000000000E+00   0.00000000000000E+00   0.00000000000000E+00   0.00000000000000E+00   0.00000000000000E+00
      0.00000000000000E+00  -1.88882041775857E-16
      1.41555555555556E-01
      0.00000000000000E+00   0.00000000000000E+00   0.00000000000000E+00   0.00000000000000E+00   2.65294520541701E-20
     -1.42125070808994E-16  -1.42098541356939E-16  -1.64092037855992E-15   0.00000000000000E+00   0.00000000000000E+00
      0.00000000000000E+00   0.00000000000000E+00  -2.01190518003789E-09  -3.34972348399449E-26  -2.01190518003789E-09
      7.66826110880435E-16   4.24666666666667E-01   4.24666666666667E-01   0.00000000000000E+00   0.00000000000000E+00
      2.01190532212444E-09   1.19757875275929E-20   2.01190532213642E-09   1.07429353537036E-15   0.00000000000000E+00
      0.00000000000000E+00   0.00000000000000E+00   0.00000000000000E+00   0.00000000000000E+00   0.00000000000000E+00
      0.00000000000000E+00  -2.00199267690882E-16
      1.66555555555556E-01
      0.00000000000000E+00   0.00000000000000E+00   0.00000000000000E+00   0.00000000000000E+00   5.81165556836186E-17
     -1.73960714754296E-16  -1.15844159070678E-16  -1.67197597999148E-15   0.00000000000000E+00   0.00000000000000E+00
      0.00000000000000E+00   0.00000000000000E+00  -4.55929545411794E-09  -3.87533233715635E-26  -4.55929545411794E-09
      7.61787913450466E-16   4.99666666666667E-01   4.99666666666667E-01   0.00000000000000E+00   0.00000000000000E+00
      4.55929556995007E-09   1.19756081623922E-20   4.55929556996205E-09   1.12167852780340E-15   0.00000000000000E+00
      0.00000000000000E+00   0.00000000000000E+00   0.00000000000000E+00   0.00000000000000E+00   0.00000000000000E+00
      0.00000000000000E+00  -2.11490461262389E-16
      1.91555555555556E-01
      0.00000000000000E+00   0.00000000000000E+00   0.00000000000000E+00   0.00000000000000E+00  -7.29482927014812E-20
     -2.11842325277116E-16  -2.11915273569817E-16  -1.70233844269042E-15   0.00000000000000E+00   0.00000000000000E+00
      0.00000000000000E+00   0.00000000000000E+00  -9.91797511929771E-09  -4.02157885750503E-26  -9.91797511929771E-09
      7.56705854525114E-16   5.74666666666667E-01   5.74666666666667E-01   0.00000000000000E+00   0.00000000000000E+00
      9.91797533120095E-09   1.19764978918732E-20   9.91797533121292E-09   1.16838907826179E-15   0.00000000000000E+00
      0.00000000000000E+00   0.00000000000000E+00   0.00000000000000E+00   0.00000000000000E+00   0.00000000000000E+00
      0.00000000000000E+00  -2.22756490096488E-16
      2.16555555555556E-01
      0.00000000000000E+00   0.00000000000000E+00   0.00000000000000E+00   0.00000000000000E+00   5.84595948785506E-21
     -2.48089088779807E-16  -2.48083242820319E-16  -1.73195066131910E-15   0.00000000000000E+00   0.00000000000000E+00
      0.00000000000000E+00   0.00000000000000E+00  -2.07864909024986E-08  -4.37559951772689E-26  -2.07864909024986E-08
      7.51585884015818E-16   6.49666666666667E-01   6.49666666666667E-01   0.00000000000000E+00   0.00000000000000E+00
      2.07864911505697E-08   1.19776340509438E-20   2.07864911505817E-08   1.21436382249897E-15   0.00000000000000E+00
      0.00000000000000E+00   0.00000000000000E+00   0.00000000000000E+00   0.00000000000000E+00   0.00000000000000E+00
      0.00000000000000E+00  -2.33999045195691E-16
      2.41555555555556E-01
      0.00000000000000E+00   0.00000000000000E+00   0.00000000000000E+00   0.00000000000000E+00  -1.47202203612687E-19
     -2.73551877335993E-16  -2.73699079539605E-16  -1.76076431163434E-15   0.00000000000000E+00   0.00000000000000E+00
      0.00000000000000E+00   0.00000000000000E+00  -4.21605853359124E-08  -5.52758480736534E-26  -4.21605853359124E-08
      7.46433339556724E-16   7.24666666666667E-01   7.24666666666667E-01   0.00000000000000E+00   0.00000000000000E+00
      4.21605856095992E-08   1.19789716612787E-20   4.21605856096112E-08   1.25955138299799E-15   0.00000000000000E+00
      0.00000000000000E+00   0.00000000000000E+00   0.00000000000000E+00   0.00000000000000E+00   0.00000000000000E+00
      0.00000000000000E+00  -2.45220410920381E-16
      2.66555555555556E-01
      0.00000000000000E+00   0.00000000000000E+00   0.00000000000000E+00   0.00000000000000E+00   9.86964592916000E-17
     -2.89309070816055E-16  -1.90612611524455E-16  -1.78878504888568E-15   0.00000000000000E+00   0.00000000000000E+00
      0.00000000000000E+00   0.00000000000000E+00  -8.31556723168330E-08  -8.34016859566779E-26  -8.31556723168330E-08
      7.41253280302294E-16   7.99666666666667E-01   7.99666666666667E-01   0.00000000000000E+00   0.00000000000000E+00
      8.31556725074334E-08   1.19803779202645E-20   8.31556725074454E-08   1.30395466745196E-15   0.00000000000000E+00
      0.00000000000000E+00   0.00000000000000E+00   0.00000000000000E+00   0.00000000000000E+00   0.00000000000000E+00
      0.00000000000000E+00  -2.56422898868573E-16
      2.91555555555556E-01
      0.00000000000000E+00   0.00000000000000E+00   0.00000000000000E+00   0.00000000000000E+00   1.30449344718134E-20
     -3.01156047895142E-16  -3.01143002960671E-16  -1.81610017594941E-15   0.00000000000000E+00   0.00000000000000E+00
      0.00000000000000E+00   0.00000000000000E+00  -1.60050203764581E-07  -1.41659017926229E-25  -1.60050203764581E-07
      7.36051446605868E-16   8.74666666666667E-01   8.74666666666667E-01   0.00000000000000E+00   0.00000000000000E+00
      1.60050204065712E-07   1.19818281818836E-20   1.60050204065724E-07   1.34765691440250E-15   0.00000000000000E+00
      0.00000000000000E+00   0.00000000000000E+00   0.00000000000000E+00   0.00000000000000E+00   0.00000000000000E+00
      0.00000000000000E+00  -2.67608185058967E-16
      3.16555555555556E-01
      0.00000000000000E+00   0.00000000000000E+00   0.00000000000000E+00   0.00000000000000E+00   1.87825737383272E-16
     -3.12609089607557E-16  -1.24783352224285E-16  -1.84285037100933E-15   0.00000000000000E+00   0.00000000000000E+00
      0.00000000000000E+00   0.00000000000000E+00  -3.01094338189492E-07  -2.16970514235779E-25  -3.01094338189492E-07
      7.30835457188864E-16   9.49666666666667E-01   9.49666666666667E-01   0.00000000000000E+00   0.00000000000000E+00
      3.01094338314263E-07   1.19832946517028E-20   3.01094338314275E-07   1.39079166655654E-15   0.00000000000000E+00
      0.00000000000000E+00   0.00000000000000E+00   0.00000000000000E+00   0.00000000000000E+00   0.00000000000000E+00
      0.00000000000000E+00  -2.78776752736069E-16
      3.41555555555556E-01
      0.00000000000000E+00   0.00000000000000E+00   0.00000000000000E+00   0.00000000000000E+00   6.11059713567285E-17
     -3.22304903505140E-16  -2.61198932148411E-16  -1.86917886060652E-15   0.00000000000000E+00   0.00000000000000E+00
      0.00000000000000E+00   0.00000000000000E+00  -5.53932240187953E-07  -3.09748457801639E-25  -5.53932240187953E-07
      7.25616112296955E-16   1.02466666666667E+00   1.02466666666667E+00   0.00000000000000E+00   0.00000000000000E+00
      5.53932240449139E-07   1.19848124419487E-20   5.53932240449151E-07   1.43349020489706E-15   0.00000000000000E+00
      0.00000000000000E+00   0.00000000000000E+00   0.00000000000000E+00   0.00000000000000E+00   0.00000000000000E+00
      0.00000000000000E+00  -2.89927456587498E-16
      3.66555555555556E-01
      0.00000000000000E+00   0.00000000000000E+00   0.00000000000000E+00   0.00000000000000E+00   1.39383498261333E-17
     -3.29040046796422E-16  -3.15101696970289E-16  -1.89520779632301E-15   0.00000000000000E+00   0.00000000000000E+00
      0.00000000000000E+00   0.00000000000000E+00  -9.94460509687109E-07  -4.34712710006309E-25  -9.94460509687109E-07
      7.20408703353756E-16   1.09966666666667E+00   1.09966666666667E+00   0.00000000000000E+00   0.00000000000000E+00
      9.94460510002198E-07   1.19863875457562E-20   9.94460510002210E-07   1.47585629018394E-15   0.00000000000000E+00
      0.00000000000000E+00   0.00000000000000E+00   0.00000000000000E+00   0.00000000000000E+00   0.00000000000000E+00
      0.00000000000000E+00  -3.01057197214687E-16
      3.91555555555556E-01
      0.00000000000000E+00   0.00000000000000E+00   0.00000000000000E+00   0.00000000000000E+00   6.38508672366291E-18
     -3.34318356560671E-16  -3.27933269837008E-16  -1.92104146019469E-15   0.00000000000000E+00   0.00000000000000E+00
      0.00000000000000E+00   0.00000000000000E+00  -1.73544016499154E-06  -5.97999954702127E-25  -1.73544016499154E-06
      7.15234073031371E-16   1.17466666666667E+00   1.17466666666667E+00   0.00000000000000E+00   0.00000000000000E+00
      1.73544016531946E-06   1.19881205279128E-20   1.73544016531947E-06   1.51796811665125E-15   0.00000000000000E+00
      0.00000000000000E+00   0.00000000000000E+00   0.00000000000000E+00   0.00000000000000E+00   0.00000000000000E+00
      0.00000000000000E+00  -3.12160729487926E-16
      4.16555555555556E-01
      0.00000000000000E+00   0.00000000000000E+00   0.00000000000000E+00   0.00000000000000E+00   3.72534657140667E-18
     -3.40274199621069E-16  -3.36548853049662E-16  -1.94677495667013E-15   0.00000000000000E+00   0.00000000000000E+00
      0.00000000000000E+00   0.00000000000000E+00  -2.92899904834185E-06  -8.12379344004748E-25  -2.92899904834185E-06
      7.10118593338293E-16   1.24966666666667E+00   1.24966666666667E+00   0.00000000000000E+00   0.00000000000000E+00
      2.92899904867838E-06   1.19901266119981E-20   2.92899904867839E-06   1.55988722228621E-15   0.00000000000000E+00
      0.00000000000000E+00   0.00000000000000E+00   0.00000000000000E+00   0.00000000000000E+00   0.00000000000000E+00
      0.00000000000000E+00  -3.23230858954371E-16
      4.41555555555556E-01
      0.00000000000000E+00   0.00000000000000E+00   0.00000000000000E+00   0.00000000000000E+00   2.76880368755791E-18
     -3.47485423224444E-16  -3.44716619536886E-16  -1.97249695161339E-15   0.00000000000000E+00   0.00000000000000E+00
      0.00000000000000E+00   0.00000000000000E+00  -4.75597146959999E-06  -1.09288062243364E-24  -4.75597146959999E-06
      7.05092151171858E-16   1.32466666666667E+00   1.32466666666667E+00   0.00000000000000E+00   0.00000000000000E+00
      4.75597146994469E-06   1.19925439356512E-20   4.75597146994470E-06   1.60166411415805E-15   0.00000000000000E+00
      0.00000000000000E+00   0.00000000000000E+00   0.00000000000000E+00   0.00000000000000E+00   0.00000000000000E+00
      0.00000000000000E+00  -3.34259313716518E-16
      4.66555555555556E-01
      0.00000000000000E+00   0.00000000000000E+00   0.00000000000000E+00   0.00000000000000E+00  -5.60997293411497E-20
     -3.54451383880563E-16  -3.54507483609904E-16  -1.99828629686972E-15   0.00000000000000E+00   0.00000000000000E+00
      0.00000000000000E+00   0.00000000000000E+00  -7.39946051669548E-06  -1.46107556163672E-24  -7.39946051669548E-06
      7.00184207437972E-16   1.39966666666667E+00   1.39966666666667E+00   0.00000000000000E+00   0.00000000000000E+00
      7.39946051704997E-06   1.19955035438709E-20   7.39946051704998E-06   1.64334029522953E-15   0.00000000000000E+00
      0.00000000000000E+00   0.00000000000000E+00   0.00000000000000E+00   0.00000000000000E+00   0.00000000000000E+00
      0.00000000000000E+00  -3.45238205797783E-16
      4.91555555555556E-01
      0.00000000000000E+00   0.00000000000000E+00   0.00000000000000E+00   0.00000000000000E+00  -3.45745096009812E-19
     -3.60201797214565E-16  -3.60547542310574E-16  -2.02420562341179E-15   0.00000000000000E+00   0.00000000000000E+00
      0.00000000000000E+00   0.00000000000000E+00  -1.10113437396937E-05  -1.95157767174411E-24  -1.10113437396937E-05
      6.95419228769834E-16   1.47466666666667E+00   1.47466666666667E+00   0.00000000000000E+00   0.00000000000000E+00
      1.10113437400543E-05   1.19990588161655E-20   1.10113437400543E-05   1.68494802952294E-15   0.00000000000000E+00
      0.00000000000000E+00   0.00000000000000E+00   0.00000000000000E+00   0.00000000000000E+00   0.00000000000000E+00
      0.00000000000000E+00  -3.56161634880978E-16
      5.16555555555556E-01
      0.00000000000000E+00   0.00000000000000E+00   0.00000000000000E+00   0.00000000000000E+00   2.77907479621524E-19
     -3.65341891536368E-16  -3.65063984056747E-16  -2.05029594764714E-15   0.00000000000000E+00   0.00000000000000E+00
      0.00000000000000E+00   0.00000000000000E+00  -1.56884658561105E-05  -2.59155242091660E-24  -1.56884658561105E-05
      6.90813617249303E-16   1.54966666666667E+00   1.54966666666667E+00   0.00000000000000E+00   0.00000000000000E+00
      1.56884658564755E-05   1.20032866277512E-20   1.56884658564756E-05   1.72650902978032E-15   0.00000000000000E+00
      0.00000000000000E+00   0.00000000000000E+00   0.00000000000000E+00   0.00000000000000E+00   0.00000000000000E+00
      0.00000000000000E+00  -3.67026699382476E-16
      5.41555555555556E-01
      0.00000000000000E+00   0.00000000000000E+00   0.00000000000000E+00   0.00000000000000E+00   5.15111936113105E-21
     -3.70794982002081E-16  -3.70789830882720E-16  -2.07657678089303E-15   0.00000000000000E+00   0.00000000000000E+00
      0.00000000000000E+00   0.00000000000000E+00  -2.14686356353689E-05  -3.39284347154574E-24  -2.14686356353689E-05
      6.86375457200270E-16   1.62466666666667E+00   1.62466666666667E+00   0.00000000000000E+00   0.00000000000000E+00
      2.14686356357397E-05   1.20082255867629E-20   2.14686356357397E-05   1.76803474757746E-15   0.00000000000000E+00
      0.00000000000000E+00   0.00000000000000E+00   0.00000000000000E+00   0.00000000000000E+00   0.00000000000000E+00
      0.00000000000000E+00  -3.77833423884709E-16
      5.66555555555556E-01
      0.00000000000000E+00   0.00000000000000E+00   0.00000000000000E+00   0.00000000000000E+00   2.93296646927147E-19
     -3.77988632033327E-16  -3.77695335386400E-16  -2.10305049275488E-15   0.00000000000000E+00   0.00000000000000E+00
      0.00000000000000E+00   0.00000000000000E+00  -2.83426753295088E-05  -4.36129039960692E-24  -2.83426753295088E-05
      6.82106168103975E-16   1.69966666666667E+00   1.69966666666667E+00   0.00000000000000E+00   0.00000000000000E+00
      2.83426753298865E-05   1.20138835852397E-20   2.83426753298865E-05   1.80952832884210E-15   0.00000000000000E+00
      0.00000000000000E+00   0.00000000000000E+00   0.00000000000000E+00   0.00000000000000E+00   0.00000000000000E+00
      0.00000000000000E+00  -3.88584004191194E-16
      5.91555555555556E-01
      0.00000000000000E+00   0.00000000000000E+00   0.00000000000000E+00   0.00000000000000E+00   2.93560759485534E-20
     -3.88847160418328E-16  -3.88817804342380E-16  -2.12970803935881E-15   0.00000000000000E+00   0.00000000000000E+00
      0.00000000000000E+00   0.00000000000000E+00  -3.62712813894302E-05  -5.49947345966376E-24  -3.62712813894302E-05
      6.78002755900657E-16   1.77466666666667E+00   1.77466666666667E+00   0.00000000000000E+00   0.00000000000000E+00
      3.62712813898190E-05   1.20202446240651E-20   3.62712813898190E-05   1.85098714513191E-15   0.00000000000000E+00
      0.00000000000000E+00   0.00000000000000E+00   0.00000000000000E+00   0.00000000000000E+00   0.00000000000000E+00
      0.00000000000000E+00  -3.99281861673756E-16
      6.16555555555556E-01
      0.00000000000000E+00   0.00000000000000E+00   0.00000000000000E+00   0.00000000000000E+00  -9.69124061209875E-20
     -4.04939161134201E-16  -4.05036073540322E-16  -2.15653314940873E-15   0.00000000000000E+00   0.00000000000000E+00
      0.00000000000000E+00   0.00000000000000E+00  -4.51992594138175E-05  -6.80942155097246E-24  -4.51992594138175E-05
      6.74059542872944E-16   1.84966666666667E+00   1.84966666666667E+00   0.00000000000000E+00   0.00000000000000E+00
      4.51992594142225E-05   1.20272777884407E-20   4.51992594142225E-05   1.89240455452809E-15   0.00000000000000E+00
      0.00000000000000E+00   0.00000000000000E+00   0.00000000000000E+00   0.00000000000000E+00   0.00000000000000E+00
      0.00000000000000E+00  -4.09930947992298E-16
      6.41555555555556E-01
      0.00000000000000E+00   0.00000000000000E+00   0.00000000000000E+00   0.00000000000000E+00  -2.83898207579633E-19
     -4.25164503871627E-16  -4.25448402079207E-16  -2.18350478223094E-15   0.00000000000000E+00   0.00000000000000E+00
      0.00000000000000E+00   0.00000000000000E+00  -5.50649540107915E-05  -8.29038065960509E-24  -5.50649540107915E-05
      6.70269329199957E-16   1.92466666666667E+00   1.92466666666667E+00   0.00000000000000E+00   0.00000000000000E+00
      5.50649540112169E-05   1.20349446448836E-20   5.50649540112170E-05   1.93377075618808E-15   0.00000000000000E+00
      0.00000000000000E+00   0.00000000000000E+00   0.00000000000000E+00   0.00000000000000E+00   0.00000000000000E+00
      0.00000000000000E+00  -4.20535303157103E-16
      6.66555555555556E-01
      0.00000000000000E+00   0.00000000000000E+00   0.00000000000000E+00   0.00000000000000E+00  -5.56109676647814E-13
     -4.45083798833804E-16  -5.56554760446648E-13  -2.21059816189487E-15   0.00000000000000E+00   0.00000000000000E+00
      0.00000000000000E+00   0.00000000000000E+00  -6.58056728435986E-05  -9.93706359694640E-24  -6.58056728435986E-05
      6.66624114835490E-16   1.99966666666667E+00   1.99966666666667E+00   0.00000000000000E+00   0.00000000000000E+00
      6.58056734001534E-05   1.20431831600461E-20   6.58056734001534E-05   1.97507285627013E-15   0.00000000000000E+00
      0.00000000000000E+00   0.00000000000000E+00   0.00000000000000E+00   0.00000000000000E+00   0.00000000000000E+00
      0.00000000000000E+00  -4.31098809210747E-16
      6.91555555555556E-01
      0.00000000000000E+00   0.00000000000000E+00   0.00000000000000E+00   0.00000000000000E+00  -3.98844442970023E-13
     -4.61598086506425E-16  -3.99306041056530E-13  -2.23778414610709E-15   0.00000000000000E+00   0.00000000000000E+00
      0.00000000000000E+00   0.00000000000000E+00  -7.73611978831979E-05  -1.17539123504915E-23  -7.73611978831979E-05
      6.63115197290657E-16   2.07466666666667E+00   2.07466666666667E+00   0.00000000000000E+00   0.00000000000000E+00
      7.73611982825040E-05   1.20520190007394E-20   7.73611982825040E-05   2.01629414576778E-15   0.00000000000000E+00
      0.00000000000000E+00   0.00000000000000E+00   0.00000000000000E+00   0.00000000000000E+00   0.00000000000000E+00
      0.00000000000000E+00  -4.41625196951340E-16
      7.16555555555556E-01
      0.00000000000000E+00   0.00000000000000E+00   0.00000000000000E+00   0.00000000000000E+00  -2.83656830164179E-13
     -4.74292537984613E-16  -2.84131122702164E-13  -2.26502972056362E-15   0.00000000000000E+00   0.00000000000000E+00
      0.00000000000000E+00   0.00000000000000E+00  -8.96750214054105E-05  -1.37595587980575E-23  -8.96750214054105E-05
      6.59733953190696E-16   2.14966666666667E+00   2.14966666666667E+00   0.00000000000000E+00   0.00000000000000E+00
      8.96750216895416E-05   1.20613396905864E-20   8.96750216895416E-05   2.05741359987411E-15   0.00000000000000E+00
      0.00000000000000E+00   0.00000000000000E+00   0.00000000000000E+00   0.00000000000000E+00   0.00000000000000E+00
      0.00000000000000E+00  -4.52117832501183E-16
      7.41555555555556E-01
      0.00000000000000E+00   0.00000000000000E+00   0.00000000000000E+00   0.00000000000000E+00  -2.00033711079443E-13
     -4.83353293559489E-16  -2.00517064373003E-13  -2.29229661695775E-15   0.00000000000000E+00   0.00000000000000E+00
      0.00000000000000E+00   0.00000000000000E+00  -1.02691369349510E-04  -1.60021719819489E-23  -1.02691369349510E-04
      6.56471790781017E-16   2.22466666666667E+00   2.22466666666667E+00   0.00000000000000E+00   0.00000000000000E+00
      1.02691369550027E-04   1.20708594934153E-20   1.02691369550027E-04   2.09840471105275E-15   0.00000000000000E+00
      0.00000000000000E+00   0.00000000000000E+00   0.00000000000000E+00   0.00000000000000E+00   0.00000000000000E+00
      0.00000000000000E+00  -4.62579884876026E-16
      7.66555555555556E-01
      0.00000000000000E+00   0.00000000000000E+00   0.00000000000000E+00   0.00000000000000E+00   3.42187462622184E-19
     -4.89807295512656E-16  -4.89465108050034E-16  -2.31954214309870E-15   0.00000000000000E+00   0.00000000000000E+00
      0.00000000000000E+00   0.00000000000000E+00  -1.16359799158051E-04  -1.85613903020544E-23  -1.16359799158051E-04
      6.53320168969038E-16   2.29966666666667E+00   2.29966666666667E+00   0.00000000000000E+00   0.00000000000000E+00
      1.16359799158540E-04   1.20814159249165E-20   1.16359799158541E-04   2.13923616931887E-15   0.00000000000000E+00
      0.00000000000000E+00   0.00000000000000E+00   0.00000000000000E+00   0.00000000000000E+00   0.00000000000000E+00
      0.00000000000000E+00  -4.73014195189206E-16
      7.91555555555556E-01
      0.00000000000000E+00   0.00000000000000E+00   0.00000000000000E+00   0.00000000000000E+00  -3.99878698761637E-19
     -4.95251303145433E-16  -4.95651181844195E-16  -2.34672393839915E-15   0.00000000000000E+00   0.00000000000000E+00
      0.00000000000000E+00   0.00000000000000E+00  -1.30640156329595E-04  -2.15505006461870E-23  -1.30640156329595E-04
      6.50271635554432E-16   2.37466666666667E+00   2.37466666666667E+00   0.00000000000000E+00   0.00000000000000E+00
      1.30640156330091E-04   1.20920853440552E-20   1.30640156330091E-04   2.17987533898388E-15   0.00000000000000E+00
      0.00000000000000E+00   0.00000000000000E+00   0.00000000000000E+00   0.00000000000000E+00   0.00000000000000E+00
      0.00000000000000E+00  -4.83423036139169E-16
      8.16555555555556E-01
      0.00000000000000E+00   0.00000000000000E+00   0.00000000000000E+00   0.00000000000000E+00   6.10280208630615E-19
     -5.00722586201474E-16  -5.00112305992844E-16  -2.37380518197383E-15   0.00000000000000E+00   0.00000000000000E+00
      0.00000000000000E+00   0.00000000000000E+00  -1.45494474791710E-04  -2.51355744295579E-23  -1.45494474791710E-04
      6.47319271667058E-16   2.44966666666667E+00   2.44966666666667E+00   0.00000000000000E+00   0.00000000000000E+00
      1.45494474792210E-04   1.21031397504794E-20   1.45494474792210E-04   2.22029434574020E-15   0.00000000000000E+00
      0.00000000000000E+00   0.00000000000000E+00   0.00000000000000E+00   0.00000000000000E+00   0.00000000000000E+00
      0.00000000000000E+00  -4.93808435433435E-16
      8.41555555555556E-01
      0.00000000000000E+00   0.00000000000000E+00   0.00000000000000E+00   0.00000000000000E+00   1.42035872971654E-18
     -5.06149426451250E-16  -5.04729067721533E-16  -2.40076404271493E-15   0.00000000000000E+00   0.00000000000000E+00
      0.00000000000000E+00   0.00000000000000E+00  -1.60885511235044E-04  -2.95665898011964E-23  -1.60885511235044E-04
      6.44456273149176E-16   2.52466666666667E+00   2.52466666666667E+00   0.00000000000000E+00   0.00000000000000E+00
      1.60885511235548E-04   1.21145495622488E-20   1.60885511235548E-04   2.26048004624749E-15   0.00000000000000E+00
      0.00000000000000E+00   0.00000000000000E+00   0.00000000000000E+00   0.00000000000000E+00   0.00000000000000E+00
      0.00000000000000E+00  -5.04172276681738E-16
      8.66555555555556E-01
      0.00000000000000E+00   0.00000000000000E+00   0.00000000000000E+00   0.00000000000000E+00   7.75621828921534E-19