DF-ISE text

Info {
  version   = 1.0
  type      = xyplot
  datasets  = [
    "time"
    "substrate OuterVoltage" "substrate InnerVoltage" "substrate QuasiFermiPotential" "substrate DisplacementCurrent" "substrate eCurrent"
    "substrate hCurrent" "substrate TotalCurrent" "substrate Charge" "source OuterVoltage" "source InnerVoltage"
    "source QuasiFermiPotential" "source DisplacementCurrent" "source eCurrent" "source hCurrent" "source TotalCurrent"
    "source Charge" "drain OuterVoltage" "drain InnerVoltage" "drain QuasiFermiPotential" "drain DisplacementCurrent"
    "drain eCurrent" "drain hCurrent" "drain TotalCurrent" "drain Charge" "gate OuterVoltage"
    "gate InnerVoltage" "gate QuasiFermiPotential" "gate DisplacementCurrent" "gate eCurrent" "gate hCurrent"
    "gate TotalCurrent" "gate Charge" ]
  functions = [
    Time
    OuterVoltage InnerVoltage QuasiFermiPotential DisplacementCurrent eCurrent
    hCurrent TotalCurrent Charge OuterVoltage InnerVoltage
    QuasiFermiPotential DisplacementCurrent eCurrent hCurrent TotalCurrent
    Charge OuterVoltage InnerVoltage QuasiFermiPotential DisplacementCurrent
    eCurrent hCurrent TotalCurrent Charge OuterVoltage
    InnerVoltage QuasiFermiPotential DisplacementCurrent eCurrent hCurrent
    TotalCurrent Charge ]
}

Data {
      0.00000000000000E+00
      0.00000000000000E+00   0.00000000000000E+00   0.00000000000000E+00   0.00000000000000E+00  -1.57523164549473E-20
      5.57959829117974E-28  -1.57523158969875E-20  -1.99554252107837E-15   0.00000000000000E+00   0.00000000000000E+00
      0.00000000000000E+00   0.00000000000000E+00  -2.15202742094353E-20  -1.39705769443510E-28  -2.15202743491411E-20
      1.01634470781346E-15   0.00000000000000E+00   0.00000000000000E+00   0.00000000000000E+00   0.00000000000000E+00
      3.72725906640675E-20  -4.17938920469609E-28   3.72725902461286E-20   1.01634470781345E-15   0.00000000000000E+00
      0.00000000000000E+00   0.00000000000000E+00   0.00000000000000E+00   0.00000000000000E+00   0.00000000000000E+00
      0.00000000000000E+00  -3.71468945485402E-17
      1.00000000000000E-02
      0.00000000000000E+00   0.00000000000000E+00   0.00000000000000E+00   0.00000000000000E+00   2.03326815987756E-17
     -2.45248006108742E-17  -4.19211901209858E-18  -2.01693932374690E-15   0.00000000000000E+00   0.00000000000000E+00
      0.00000000000000E+00   0.00000000000000E+00  -3.07666312861274E-19   5.14831629801947E-28  -3.07666312346443E-19
      1.01634464733656E-15   3.00000000000000E-02   3.00000000000000E-02   0.00000000000000E+00   0.00000000000000E+00
      4.48948852285872E-18   1.02968015863009E-20   4.49978532444502E-18   1.04178736911747E-15   0.00000000000000E+00
      0.00000000000000E+00   0.00000000000000E+00   0.00000000000000E+00   0.00000000000000E+00   0.00000000000000E+00
      0.00000000000000E+00  -4.11926927071324E-17
      2.33333333333333E-02
      0.00000000000000E+00   0.00000000000000E+00   0.00000000000000E+00   0.00000000000000E+00   3.38926672830703E-17
     -4.44496876670350E-17  -1.05570203839648E-17  -2.04518540054280E-15   0.00000000000000E+00   0.00000000000000E+00
      0.00000000000000E+00   0.00000000000000E+00  -3.27835115954046E-19  -6.21367677493201E-28  -3.27835116575414E-19
      1.01634456252976E-15   7.00000000000000E-02   7.00000000000000E-02   0.00000000000000E+00   0.00000000000000E+00
      1.08707397018223E-17   1.41157987178530E-20   1.08848555005401E-17   1.07543258696243E-15   0.00000000000000E+00
      0.00000000000000E+00   0.00000000000000E+00   0.00000000000000E+00   0.00000000000000E+00   0.00000000000000E+00
      0.00000000000000E+00  -4.65917489493947E-17
      4.28888888888889E-02
      0.00000000000000E+00   0.00000000000000E+00   0.00000000000000E+00   0.00000000000000E+00  -5.32603394093186E-20
     -6.56310220533801E-17  -6.56842823927894E-17  -2.08609860576795E-15   0.00000000000000E+00   0.00000000000000E+00
      0.00000000000000E+00   0.00000000000000E+00  -3.96571154543871E-19  -2.36344436635812E-28  -3.96571154780216E-19
      1.01634442924942E-15   1.28666666666667E-01   1.28666666666667E-01   0.00000000000000E+00   0.00000000000000E+00
      6.60834367293317E-17  -2.58318176227862E-21   6.60808535475695E-17   1.12427365918450E-15   0.00000000000000E+00
      0.00000000000000E+00   0.00000000000000E+00   0.00000000000000E+00   0.00000000000000E+00   0.00000000000000E+00
      0.00000000000000E+00  -5.45194826659755E-17
      6.78888888888889E-02
      0.00000000000000E+00   0.00000000000000E+00   0.00000000000000E+00   0.00000000000000E+00  -3.67890662926740E-20
     -9.17964429175208E-17  -9.18332319838135E-17  -2.13760932111918E-15   0.00000000000000E+00   0.00000000000000E+00
      0.00000000000000E+00   0.00000000000000E+00  -4.06522863946023E-19   1.87209794980340E-28  -4.06522863758813E-19
      1.01634424272380E-15   2.03666666666667E-01   2.03666666666667E-01   0.00000000000000E+00   0.00000000000000E+00
      9.21190680482859E-17   1.20686799286646E-19   9.22397548475725E-17   1.18593465516677E-15   0.00000000000000E+00
      0.00000000000000E+00   0.00000000000000E+00   0.00000000000000E+00   0.00000000000000E+00   0.00000000000000E+00
      0.00000000000000E+00  -6.46695767713960E-17
      9.28888888888889E-02
      0.00000000000000E+00   0.00000000000000E+00   0.00000000000000E+00   0.00000000000000E+00   4.86012423263888E-21
     -1.24629075595298E-16  -1.24624215471065E-16  -2.18829628414685E-15   0.00000000000000E+00   0.00000000000000E+00
      0.00000000000000E+00   0.00000000000000E+00  -4.52933742278517E-19  -1.44034337668932E-29  -4.52933742292921E-19
      1.01634403693178E-15   2.78666666666667E-01   2.78666666666667E-01   0.00000000000000E+00   0.00000000000000E+00
      1.25028264548923E-16   4.88846644352295E-20   1.25077149213358E-16   1.24678894434510E-15   0.00000000000000E+00
      0.00000000000000E+00   0.00000000000000E+00   0.00000000000000E+00   0.00000000000000E+00   0.00000000000000E+00
      0.00000000000000E+00  -7.48366971300275E-17
      1.17888888888889E-01
      0.00000000000000E+00   0.00000000000000E+00   0.00000000000000E+00   0.00000000000000E+00  -5.71368131275755E-20
     -1.69598933268051E-16  -1.69656070081179E-16  -2.23817951737044E-15   0.00000000000000E+00   0.00000000000000E+00
      0.00000000000000E+00   0.00000000000000E+00  -3.70715674105303E-19   1.96671723115065E-27  -3.70715672138585E-19
      1.01634381040341E-15   3.53666666666667E-01   3.53666666666667E-01   0.00000000000000E+00   0.00000000000000E+00
      1.69934186380656E-16   9.25993726611657E-20   1.70026785753317E-16   1.30685705529379E-15   0.00000000000000E+00
      0.00000000000000E+00   0.00000000000000E+00   0.00000000000000E+00   0.00000000000000E+00   0.00000000000000E+00
      0.00000000000000E+00  -8.50213483267623E-17
      1.42888888888889E-01
      0.00000000000000E+00   0.00000000000000E+00   0.00000000000000E+00   0.00000000000000E+00   3.52828136484831E-20
     -2.23560405921812E-16  -2.23525123108164E-16  -2.28723060899732E-15   0.00000000000000E+00   0.00000000000000E+00
      0.00000000000000E+00   0.00000000000000E+00  -4.70097152285957E-19  -1.48591754789189E-27  -4.70097153771875E-19
      1.01634356143336E-15   4.28666666666667E-01   4.28666666666667E-01   0.00000000000000E+00   0.00000000000000E+00
      2.23952448040702E-16   4.27722212329839E-20   2.23995220261935E-16   1.36611138964048E-15   0.00000000000000E+00
      0.00000000000000E+00   0.00000000000000E+00   0.00000000000000E+00   0.00000000000000E+00   0.00000000000000E+00
      0.00000000000000E+00  -9.52243420765236E-17
      1.67888888888889E-01
      0.00000000000000E+00   0.00000000000000E+00   0.00000000000000E+00   0.00000000000000E+00  -2.45749524514494E-20
     -2.83766413202273E-16  -2.83790988154725E-16  -2.33537040741678E-15   0.00000000000000E+00   0.00000000000000E+00
      0.00000000000000E+00   0.00000000000000E+00  -4.19725111525232E-19   4.26729877866660E-28  -4.19725111098502E-19
      1.01634328809991E-15   5.03666666666667E-01   5.03666666666667E-01   0.00000000000000E+00   0.00000000000000E+00
      2.84193376343851E-16   1.73369219722834E-20   2.84210713265824E-16   1.42447378750113E-15   0.00000000000000E+00
      0.00000000000000E+00   0.00000000000000E+00   0.00000000000000E+00   0.00000000000000E+00   0.00000000000000E+00
      0.00000000000000E+00  -1.05446668184254E-16
      1.92888888888889E-01
      0.00000000000000E+00   0.00000000000000E+00   0.00000000000000E+00   0.00000000000000E+00   2.30614838913712E-20
     -3.53369562153972E-16  -3.53346500670081E-16  -2.38247395202216E-15   0.00000000000000E+00   0.00000000000000E+00
      0.00000000000000E+00   0.00000000000000E+00  -4.80297072091203E-19  -1.97822256160847E-27  -4.80297074069426E-19
      1.01634298830257E-15   5.78666666666667E-01   5.78666666666667E-01   0.00000000000000E+00   0.00000000000000E+00
      3.53971852784238E-16  -1.45055040086855E-19   3.53826797744151E-16   1.48182038587079E-15   0.00000000000000E+00
      0.00000000000000E+00   0.00000000000000E+00   0.00000000000000E+00   0.00000000000000E+00   0.00000000000000E+00
      0.00000000000000E+00  -1.15689422151205E-16
      2.17888888888889E-01
      0.00000000000000E+00   0.00000000000000E+00   0.00000000000000E+00   0.00000000000000E+00  -5.59361373027394E-20
     -4.23496570747342E-16  -4.23552506884645E-16  -2.42839676773029E-15   0.00000000000000E+00   0.00000000000000E+00
      0.00000000000000E+00   0.00000000000000E+00  -4.01430130871087E-19  -3.04259978220926E-28  -4.01430131175347E-19
      1.01634265981206E-15   6.53666666666667E-01   6.53666666666667E-01   0.00000000000000E+00   0.00000000000000E+00
      4.24395882173921E-16  -4.41945158099938E-19   4.23953937015821E-16   1.53800784154912E-15   0.00000000000000E+00
      0.00000000000000E+00   0.00000000000000E+00   0.00000000000000E+00   0.00000000000000E+00   0.00000000000000E+00
      0.00000000000000E+00  -1.25953733630889E-16
      2.42888888888889E-01
      0.00000000000000E+00   0.00000000000000E+00   0.00000000000000E+00   0.00000000000000E+00  -2.58369192874744E-21
     -4.79888827728671E-16  -4.79891411420600E-16  -2.47303845870767E-15   0.00000000000000E+00   0.00000000000000E+00
      0.00000000000000E+00   0.00000000000000E+00  -4.60054345232427E-19  -1.25272367305171E-27  -4.60054346485151E-19
      1.01634230032552E-15   7.28666666666667E-01   7.28666666666667E-01   0.00000000000000E+00   0.00000000000000E+00
      4.80334124334888E-16   1.73414321972202E-20   4.80351465767086E-16   1.59293683500550E-15   0.00000000000000E+00
      0.00000000000000E+00   0.00000000000000E+00   0.00000000000000E+00   0.00000000000000E+00   0.00000000000000E+00
      0.00000000000000E+00  -1.36240676623344E-16
      2.67888888888889E-01
      0.00000000000000E+00   0.00000000000000E+00   0.00000000000000E+00   0.00000000000000E+00  -5.37617798607909E-21
     -5.17270340091333E-16  -5.17275716269320E-16  -2.51642849551545E-15   0.00000000000000E+00   0.00000000000000E+00
      0.00000000000000E+00   0.00000000000000E+00  -4.63843585454562E-19  -5.60531313382548E-28  -4.63843586015093E-19
      1.01634190752315E-15   8.03666666666667E-01   8.03666666666667E-01   0.00000000000000E+00   0.00000000000000E+00
      5.17718607010030E-16   2.09528453039707E-20   5.17739559855334E-16   1.64663774426267E-15   0.00000000000000E+00
      0.00000000000000E+00   0.00000000000000E+00   0.00000000000000E+00   0.00000000000000E+00   0.00000000000000E+00
      0.00000000000000E+00  -1.46551156270372E-16
      2.92888888888889E-01
      0.00000000000000E+00   0.00000000000000E+00   0.00000000000000E+00   0.00000000000000E+00  -4.05738443290233E-21
     -5.42385505878215E-16  -5.42389563262648E-16  -2.55875058253588E-15   0.00000000000000E+00   0.00000000000000E+00
      0.00000000000000E+00   0.00000000000000E+00  -4.70533727594066E-19  -1.15054574581366E-27  -4.70533728744611E-19
      1.01634147912011E-15   8.78666666666667E-01   8.78666666666667E-01   0.00000000000000E+00   0.00000000000000E+00
      5.43704632975702E-16  -8.44535984310866E-19   5.42860096991391E-16   1.69929489307395E-15   0.00000000000000E+00
      0.00000000000000E+00   0.00000000000000E+00   0.00000000000000E+00   0.00000000000000E+00   0.00000000000000E+00
      0.00000000000000E+00  -1.56885789658180E-16
      3.17888888888889E-01
      0.00000000000000E+00   0.00000000000000E+00   0.00000000000000E+00   0.00000000000000E+00  -2.64782978589620E-20
     -5.61911587788314E-16  -5.61938066086172E-16  -2.60025340742389E-15   0.00000000000000E+00   0.00000000000000E+00
      0.00000000000000E+00   0.00000000000000E+00  -4.54405385915206E-19   8.53071749952201E-28  -4.54405385062135E-19
      1.01634101290212E-15   9.53666666666667E-01   9.53666666666667E-01   0.00000000000000E+00   0.00000000000000E+00
      5.62559842389483E-16  -1.67370918248008E-19   5.62392471471235E-16   1.75115721115400E-15   0.00000000000000E+00
      0.00000000000000E+00   0.00000000000000E+00   0.00000000000000E+00   0.00000000000000E+00   0.00000000000000E+00
      0.00000000000000E+00  -1.67244816632233E-16
      3.42888888888889E-01
      0.00000000000000E+00   0.00000000000000E+00   0.00000000000000E+00   0.00000000000000E+00  -5.60336885812651E-20
     -5.75440090152917E-16  -5.75496123841498E-16  -2.64114672952249E-15   0.00000000000000E+00   0.00000000000000E+00
      0.00000000000000E+00   0.00000000000000E+00  -4.31157852743253E-19  -2.11807633252410E-28  -4.31157852955060E-19
      1.01634050673321E-15   1.02866666666667E+00   1.02866666666667E+00   0.00000000000000E+00   0.00000000000000E+00
      5.75045544798966E-16   8.81736895488558E-19   5.75927281694455E-16   1.80243429299387E-15   0.00000000000000E+00
      0.00000000000000E+00   0.00000000000000E+00   0.00000000000000E+00   0.00000000000000E+00   0.00000000000000E+00
      0.00000000000000E+00  -1.77628070204586E-16
      3.67888888888889E-01
      0.00000000000000E+00   0.00000000000000E+00   0.00000000000000E+00   0.00000000000000E+00  -3.59827015452271E-20
     -5.83605290652089E-16  -5.83641273353634E-16  -2.68157215982203E-15   0.00000000000000E+00   0.00000000000000E+00
      0.00000000000000E+00   0.00000000000000E+00  -4.57482140730476E-19   5.75380034889686E-28  -4.57482140155095E-19
      1.01633995853063E-15   1.10366666666667E+00   1.10366666666667E+00   0.00000000000000E+00   0.00000000000000E+00
      5.83783011845634E-16   3.15743648155414E-19   5.84098755493789E-16   1.85326721328763E-15   0.00000000000000E+00
      0.00000000000000E+00   0.00000000000000E+00   0.00000000000000E+00   0.00000000000000E+00   0.00000000000000E+00
      0.00000000000000E+00  -1.88035011996235E-16
      3.92888888888889E-01
      0.00000000000000E+00   0.00000000000000E+00   0.00000000000000E+00   0.00000000000000E+00   3.68745051822779E-20
     -5.90790187183395E-16  -5.90753312678212E-16  -2.72161834704324E-15   0.00000000000000E+00   0.00000000000000E+00
      0.00000000000000E+00   0.00000000000000E+00  -5.36577915381186E-19   1.56350602353796E-27  -5.36577913817680E-19
      1.01633936621082E-15   1.17866666666667E+00   1.17866666666667E+00   0.00000000000000E+00   0.00000000000000E+00
      5.91265044572314E-16   2.48460197149092E-20   5.91289890592029E-16   1.90374379764589E-15   0.00000000000000E+00
      0.00000000000000E+00   0.00000000000000E+00   0.00000000000000E+00   0.00000000000000E+00   0.00000000000000E+00
      0.00000000000000E+00  -1.98464816813480E-16
      4.17888888888889E-01
      0.00000000000000E+00   0.00000000000000E+00   0.00000000000000E+00   0.00000000000000E+00  -1.31264552109382E-20
     -5.97665260444054E-16  -5.97678386899265E-16  -2.76133884908739E-15   0.00000000000000E+00   0.00000000000000E+00
      0.00000000000000E+00   0.00000000000000E+00  -4.90855988153271E-19  -7.96925518169305E-28  -4.90855988950196E-19
      1.01633872761601E-15   1.25366666666667E+00   1.25366666666667E+00   0.00000000000000E+00   0.00000000000000E+00
      5.99450290729610E-16  -1.28104784139655E-18   5.98169242888214E-16   1.95391660357383E-15   0.00000000000000E+00
      0.00000000000000E+00   0.00000000000000E+00   0.00000000000000E+00   0.00000000000000E+00   0.00000000000000E+00
      0.00000000000000E+00  -2.08916482102454E-16
      4.42888888888889E-01
      0.00000000000000E+00   0.00000000000000E+00   0.00000000000000E+00   0.00000000000000E+00   1.16559603069980E-20
     -6.09770123977286E-16  -6.09758468016979E-16  -2.80076495778061E-15   0.00000000000000E+00   0.00000000000000E+00
      0.00000000000000E+00   0.00000000000000E+00  -5.24495453589961E-19  -8.60205916991750E-29  -5.24495453675982E-19
      1.01633804043256E-15   1.32866666666667E+00   1.32866666666667E+00   0.00000000000000E+00   0.00000000000000E+00
      6.10006395007544E-16   2.76568463111562E-19   6.10282963470655E-16   2.00381585778348E-15   0.00000000000000E+00
      0.00000000000000E+00   0.00000000000000E+00   0.00000000000000E+00   0.00000000000000E+00   0.00000000000000E+00
      0.00000000000000E+00  -2.19388940435429E-16
      4.67888888888889E-01
      0.00000000000000E+00   0.00000000000000E+00   0.00000000000000E+00   0.00000000000000E+00  -3.06940672958771E-20
     -6.23396771399652E-16  -6.23427465466948E-16  -2.83991529083976E-15   0.00000000000000E+00   0.00000000000000E+00
      0.00000000000000E+00   0.00000000000000E+00  -4.88876057566682E-19   4.40213576305653E-28  -4.88876057126468E-19
      1.01633730211182E-15   1.40366666666667E+00   1.40366666666667E+00   0.00000000000000E+00   0.00000000000000E+00
      6.23826652308373E-16   8.96892157012177E-20   6.23916341524074E-16   2.05345914806595E-15   0.00000000000000E+00
      0.00000000000000E+00   0.00000000000000E+00   0.00000000000000E+00   0.00000000000000E+00   0.00000000000000E+00
      0.00000000000000E+00  -2.29881159338012E-16
      4.92888888888889E-01
      0.00000000000000E+00   0.00000000000000E+00   0.00000000000000E+00   0.00000000000000E+00   5.30667527990315E-21
     -6.39072830123532E-16  -6.39067523448252E-16  -2.87880247982853E-15   0.00000000000000E+00   0.00000000000000E+00
      0.00000000000000E+00   0.00000000000000E+00  -5.31632165567492E-19  -5.72063839834051E-28  -5.31632166139555E-19
      1.01633650980223E-15   1.47866666666667E+00   1.47866666666667E+00   0.00000000000000E+00   0.00000000000000E+00
      6.39581764752666E-16   1.73908617254072E-20   6.39599155614392E-16   2.10285818880175E-15   0.00000000000000E+00
      0.00000000000000E+00   0.00000000000000E+00   0.00000000000000E+00   0.00000000000000E+00   0.00000000000000E+00
      0.00000000000000E+00  -2.40392218775453E-16
      5.17888888888889E-01
      0.00000000000000E+00   0.00000000000000E+00   0.00000000000000E+00   0.00000000000000E+00  -4.79662062317396E-20
     -6.54151892247204E-16  -6.54199858453436E-16  -2.91743668980197E-15   0.00000000000000E+00   0.00000000000000E+00
      0.00000000000000E+00   0.00000000000000E+00  -4.85198521371676E-19  -5.89419452442320E-28  -4.85198521961095E-19
      1.01633566029734E-15   1.55366666666667E+00   1.55366666666667E+00   0.00000000000000E+00   0.00000000000000E+00
      6.54210844382680E-16   4.74212592717530E-19   6.54685056975397E-16   2.15202239221476E-15   0.00000000000000E+00
      0.00000000000000E+00   0.00000000000000E+00   0.00000000000000E+00   0.00000000000000E+00   0.00000000000000E+00
      0.00000000000000E+00  -2.50921362710134E-16
      5.42888888888889E-01
      0.00000000000000E+00   0.00000000000000E+00   0.00000000000000E+00   0.00000000000000E+00  -2.26875088861398E-20
     -6.67634961248864E-16  -6.67657648757751E-16  -2.95582618957036E-15   0.00000000000000E+00   0.00000000000000E+00
      0.00000000000000E+00   0.00000000000000E+00  -5.17384819572237E-19  -4.68734243476382E-29  -5.17384819619111E-19
      1.01633475000002E-15   1.62866666666667E+00   1.62866666666667E+00   0.00000000000000E+00   0.00000000000000E+00
      6.67511372010067E-16   6.63661567303464E-19   6.68175033577371E-16   2.20095946575762E-15   0.00000000000000E+00
      0.00000000000000E+00   0.00000000000000E+00   0.00000000000000E+00   0.00000000000000E+00   0.00000000000000E+00
      0.00000000000000E+00  -2.61468026187278E-16
      5.67888888888889E-01
      0.00000000000000E+00   0.00000000000000E+00   0.00000000000000E+00   0.00000000000000E+00  -1.59282757799987E-20
     -6.81671184669245E-16  -6.81687112945025E-16  -2.99397600874512E-15   0.00000000000000E+00   0.00000000000000E+00
      0.00000000000000E+00   0.00000000000000E+00  -5.19996196481720E-19   9.27816101662309E-28  -5.19996195553903E-19
      1.01633377490152E-15   1.70366666666667E+00   1.70366666666667E+00   0.00000000000000E+00   0.00000000000000E+00
      6.83065855351871E-16  -8.58746211291530E-19   6.82207109140580E-16   2.24967407472706E-15   0.00000000000000E+00
      0.00000000000000E+00   0.00000000000000E+00   0.00000000000000E+00   0.00000000000000E+00   0.00000000000000E+00
      0.00000000000000E+00  -2.72031840883462E-16
      5.92888888888889E-01
      0.00000000000000E+00   0.00000000000000E+00   0.00000000000000E+00   0.00000000000000E+00   7.96406878490219E-20
     -7.03491343429424E-16  -7.03411702741575E-16  -3.03188615947283E-15   0.00000000000000E+00   0.00000000000000E+00
      0.00000000000000E+00   0.00000000000000E+00  -5.79890166231363E-19   5.46143282676944E-28  -5.79890165685220E-19
      1.01633273057747E-15   1.77866666666667E+00   1.77866666666667E+00   0.00000000000000E+00   0.00000000000000E+00
      7.06163445478736E-16  -2.17185257147414E-18   7.03991592907262E-16   2.29816604973936E-15   0.00000000000000E+00
      0.00000000000000E+00   0.00000000000000E+00   0.00000000000000E+00   0.00000000000000E+00   0.00000000000000E+00
      0.00000000000000E+00  -2.82612620843998E-16
      6.17888888888889E-01
      0.00000000000000E+00   0.00000000000000E+00   0.00000000000000E+00   0.00000000000000E+00   5.69555707993646E-20
     -7.40628312549883E-16  -7.40571356979083E-16  -3.06955042689946E-15   0.00000000000000E+00   0.00000000000000E+00
      0.00000000000000E+00   0.00000000000000E+00  -4.85424305102289E-19   8.91330910957257E-28  -4.85424304210958E-19
      1.01633161220123E-15   1.85366666666667E+00   1.85366666666667E+00   0.00000000000000E+00   0.00000000000000E+00
      7.40521934779466E-16   5.34846503827744E-19   7.41056781283294E-16   2.34642914473062E-15   0.00000000000000E+00
      0.00000000000000E+00   0.00000000000000E+00   0.00000000000000E+00   0.00000000000000E+00   0.00000000000000E+00
      0.00000000000000E+00  -2.93210330032401E-16
      6.42888888888889E-01
      0.00000000000000E+00   0.00000000000000E+00   0.00000000000000E+00   0.00000000000000E+00   2.93638741728595E-20
     -7.81318585864038E-16  -7.81289221989865E-16  -3.10695582005778E-15   0.00000000000000E+00   0.00000000000000E+00
      0.00000000000000E+00   0.00000000000000E+00  -5.15841211735031E-19  -1.78597822940041E-28  -5.15841211913629E-19
      1.01633041458190E-15   1.92866666666667E+00   1.92866666666667E+00   0.00000000000000E+00   0.00000000000000E+00
      7.81839670184765E-16  -3.46069829877620E-20   7.81805063201778E-16   2.39445044134710E-15   0.00000000000000E+00
      0.00000000000000E+00   0.00000000000000E+00   0.00000000000000E+00   0.00000000000000E+00   0.00000000000000E+00
      0.00000000000000E+00  -3.03825035871224E-16
      6.67888888888889E-01
      0.00000000000000E+00   0.00000000000000E+00   0.00000000000000E+00   0.00000000000000E+00   2.84149303495863E-20
     -8.17758202555298E-16  -8.17729787624949E-16  -3.14408219255773E-15   0.00000000000000E+00   0.00000000000000E+00
      0.00000000000000E+00   0.00000000000000E+00  -5.81945229118935E-19  -7.39723614937299E-28  -5.81945229858659E-19
      1.01632913222186E-15   2.00366666666667E+00   2.00366666666667E+00   0.00000000000000E+00   0.00000000000000E+00
      8.18366396947084E-16  -5.46640922764568E-20   8.18311732854807E-16   2.44220991635957E-15   0.00000000000000E+00
      0.00000000000000E+00   0.00000000000000E+00   0.00000000000000E+00   0.00000000000000E+00   0.00000000000000E+00
      0.00000000000000E+00  -3.14456856023702E-16
      6.92888888888889E-01
      0.00000000000000E+00   0.00000000000000E+00   0.00000000000000E+00   0.00000000000000E+00  -6.45060733645596E-20
     -8.43893727050367E-16  -8.43958233123731E-16  -3.18090147703445E-15   0.00000000000000E+00   0.00000000000000E+00
      0.00000000000000E+00   0.00000000000000E+00  -5.19290215696706E-19  -3.13179130319108E-28  -5.19290216009885E-19
      1.01632775939084E-15   2.07866666666667E+00   2.07866666666667E+00   0.00000000000000E+00   0.00000000000000E+00
      8.44460137920682E-16   1.73854190595035E-20   8.44477523339742E-16   2.48967962422914E-15   0.00000000000000E+00
      0.00000000000000E+00   0.00000000000000E+00   0.00000000000000E+00   0.00000000000000E+00   0.00000000000000E+00
      0.00000000000000E+00  -3.25105906585538E-16
      7.17888888888889E-01
      0.00000000000000E+00   0.00000000000000E+00   0.00000000000000E+00   0.00000000000000E+00  -2.76717679903959E-20
     -8.62077518041359E-16  -8.62105189809349E-16  -3.21737628302586E-15   0.00000000000000E+00   0.00000000000000E+00
      0.00000000000000E+00   0.00000000000000E+00  -5.63954870668343E-19   6.77350050215239E-28  -5.63954869990993E-19
      1.01632629020959E-15   2.15366666666667E+00   2.15366666666667E+00   0.00000000000000E+00   0.00000000000000E+00
      8.62651769052519E-16   1.73756268203984E-20   8.62669144679340E-16   2.53682225078240E-15   0.00000000000000E+00
      0.00000000000000E+00   0.00000000000000E+00   0.00000000000000E+00   0.00000000000000E+00   0.00000000000000E+00
      0.00000000000000E+00  -3.35772257966137E-16
      7.42888888888889E-01
      0.00000000000000E+00   0.00000000000000E+00   0.00000000000000E+00   0.00000000000000E+00  -2.25510185127626E-20
     -8.75868457672857E-16  -8.75891008691370E-16  -3.25345829170076E-15   0.00000000000000E+00   0.00000000000000E+00
      0.00000000000000E+00   0.00000000000000E+00  -5.77082440606596E-19   1.41698990487361E-27  -5.77082439189606E-19
      1.01632471873675E-15   2.22866666666667E+00   2.22866666666667E+00   0.00000000000000E+00   0.00000000000000E+00
      8.76450714090932E-16   1.73770396274577E-20   8.76468091130559E-16   2.58358947421860E-15   0.00000000000000E+00
      0.00000000000000E+00   0.00000000000000E+00   0.00000000000000E+00   0.00000000000000E+00   0.00000000000000E+00
      0.00000000000000E+00  -3.46455901254587E-16
      7.67888888888889E-01
      0.00000000000000E+00   0.00000000000000E+00   0.00000000000000E+00   0.00000000000000E+00  -5.05572866034993E-20
     -8.87564083753417E-16  -8.87614641040020E-16  -3.28908820036428E-15   0.00000000000000E+00   0.00000000000000E+00
      0.00000000000000E+00   0.00000000000000E+00  -5.57296384031676E-19   6.59479096441480E-29  -5.57296383965728E-19
      1.01632303905230E-15   2.30366666666667E+00   2.30366666666667E+00   0.00000000000000E+00   0.00000000000000E+00
      8.88154558937015E-16   1.73784869708115E-20   8.88171937423986E-16   2.62992188586228E-15   0.00000000000000E+00
      0.00000000000000E+00   0.00000000000000E+00   0.00000000000000E+00   0.00000000000000E+00   0.00000000000000E+00
      0.00000000000000E+00  -3.57156724550294E-16
      7.92888888888889E-01
      0.00000000000000E+00   0.00000000000000E+00   0.00000000000000E+00   0.00000000000000E+00   1.97731875205732E-20
     -8.98050844419249E-16  -8.98031071231729E-16  -3.32420105319454E-15   0.00000000000000E+00   0.00000000000000E+00
      0.00000000000000E+00   0.00000000000000E+00  -6.36060838441832E-19   9.70469774147099E-28  -6.36060837471362E-19
      1.01632124534683E-15   2.37866666666667E+00   2.37866666666667E+00   0.00000000000000E+00   0.00000000000000E+00
      8.98649752193172E-16   1.73798760269571E-20   8.98667132069199E-16   2.67575430485214E-15   0.00000000000000E+00
      0.00000000000000E+00   0.00000000000000E+00   0.00000000000000E+00   0.00000000000000E+00   0.00000000000000E+00
      0.00000000000000E+00  -3.67874497004426E-16
      8.17888888888889E-01
      0.00000000000000E+00   0.00000000000000E+00   0.00000000000000E+00   0.00000000000000E+00   1.68510148843483E-20
     -9.06778899359745E-16  -9.06762048344860E-16  -3.35874206073261E-15   0.00000000000000E+00   0.00000000000000E+00
      0.00000000000000E+00   0.00000000000000E+00  -6.41834276361537E-19  -1.05132825177683E-27  -6.41834277412865E-19
      1.01631933198291E-15   2.45366666666667E+00   2.45366666666667E+00   0.00000000000000E+00   0.00000000000000E+00
      9.07386501407981E-16   1.73812142919766E-20   9.07403882622273E-16   2.72103158750210E-15   0.00000000000000E+00
      0.00000000000000E+00   0.00000000000000E+00   0.00000000000000E+00   0.00000000000000E+00   0.00000000000000E+00
      0.00000000000000E+00  -3.78608858752407E-16
      8.42888888888889E-01
      0.00000000000000E+00   0.00000000000000E+00   0.00000000000000E+00   0.00000000000000E+00   7.01962535998072E-21
     -9.13430175353746E-16  -9.13423155728386E-16  -3.39269262344359E-15   0.00000000000000E+00   0.00000000000000E+00
      0.00000000000000E+00   0.00000000000000E+00  -6.40988141720897E-19   9.55031715460926E-30  -6.40988141711347E-19
      1.01631729355670E-15   2.52866666666667E+00   2.52866666666667E+00   0.00000000000000E+00   0.00000000000000E+00
      9.14046761367420E-16   1.73825026773996E-20   9.14064143870097E-16   2.76573464690835E-15   0.00000000000000E+00
      0.00000000000000E+00   0.00000000000000E+00   0.00000000000000E+00   0.00000000000000E+00   0.00000000000000E+00
      0.00000000000000E+00  -3.89359317021470E-16
      8.67888888888889E-01
      0.00000000000000E+00   0.00000000000000E+00   0.00000000000000E+00   0.00000000000000E+00  -6.24376011761944E-20