DF-ISE text

Info {
  version   = 1.0
  type      = xyplot
  datasets  = [
    "time"
    "substrate OuterVoltage" "substrate InnerVoltage" "substrate QuasiFermiPotential" "substrate DisplacementCurrent" "substrate eCurrent"
    "substrate hCurrent" "substrate TotalCurrent" "substrate Charge" "source OuterVoltage" "source InnerVoltage"
    "source QuasiFermiPotential" "source DisplacementCurrent" "source eCurrent" "source hCurrent" "source TotalCurrent"
    "source Charge" "drain OuterVoltage" "drain InnerVoltage" "drain QuasiFermiPotential" "drain DisplacementCurrent"
    "drain eCurrent" "drain hCurrent" "drain TotalCurrent" "drain Charge" "gate OuterVoltage"
    "gate InnerVoltage" "gate QuasiFermiPotential" "gate DisplacementCurrent" "gate eCurrent" "gate hCurrent"
    "gate TotalCurrent" "gate Charge" ]
  functions = [
    Time
    OuterVoltage InnerVoltage QuasiFermiPotential DisplacementCurrent eCurrent
    hCurrent TotalCurrent Charge OuterVoltage InnerVoltage
    QuasiFermiPotential DisplacementCurrent eCurrent hCurrent TotalCurrent
    Charge OuterVoltage InnerVoltage QuasiFermiPotential DisplacementCurrent
    eCurrent hCurrent TotalCurrent Charge OuterVoltage
    InnerVoltage QuasiFermiPotential DisplacementCurrent eCurrent hCurrent
    TotalCurrent Charge ]
}

Data {
      0.00000000000000E+00
      0.00000000000000E+00   0.00000000000000E+00   0.00000000000000E+00   0.00000000000000E+00  -4.54560596226896E-17
      6.22269958356276E-27  -4.54560596164669E-17  -7.77904911556977E-15   0.00000000000000E+00   0.00000000000000E+00
      0.00000000000000E+00   0.00000000000000E+00   2.41759448593540E-17  -1.64127490003220E-27   2.41759448577127E-17
      2.18186362270812E-15   0.00000000000000E+00   0.00000000000000E+00   0.00000000000000E+00   0.00000000000000E+00
      2.12801147633351E-17  -4.58086872999043E-27   2.12801147587542E-17   2.18186362270812E-15   3.00000000000000E+00
      3.00000000000000E+00   0.00000000000000E+00   0.00000000000000E+00   0.00000000000000E+00   0.00000000000000E+00
      0.00000000000000E+00   3.41532187015354E-15
      1.00000000000000E-02
      0.00000000000000E+00   0.00000000000000E+00   0.00000000000000E+00   0.00000000000000E+00   9.04793938728762E-18
     -6.07891016582444E-17  -5.17411622709567E-17  -7.81406823291533E-15   0.00000000000000E+00   0.00000000000000E+00
      0.00000000000000E+00   0.00000000000000E+00  -2.02770788516272E-06  -2.12073273537756E-25  -2.02770788516272E-06
      2.18184087971553E-15   3.00000000000000E-02   3.00000000000000E-02   0.00000000000000E+00   0.00000000000000E+00
      2.02770788521443E-06   3.47855712499452E-20   2.02770788521446E-06   2.23499152912983E-15   3.00000000000000E+00
      3.00000000000000E+00   0.00000000000000E+00   0.00000000000000E+00   0.00000000000000E+00   0.00000000000000E+00
      0.00000000000000E+00   3.39723582406995E-15
      2.33333333333333E-02
      0.00000000000000E+00   0.00000000000000E+00   0.00000000000000E+00   0.00000000000000E+00  -1.17249399939093E-17
     -1.22511899775968E-16  -1.34236839769877E-16  -7.86175241016557E-15   0.00000000000000E+00   0.00000000000000E+00
      0.00000000000000E+00   0.00000000000000E+00  -4.15134862976840E-06  -4.13078064692232E-25  -4.15134862976840E-06
      2.18181648388192E-15   7.00000000000000E-02   7.00000000000000E-02   0.00000000000000E+00   0.00000000000000E+00
      4.15134862990261E-06   1.74839588674146E-20   4.15134862990263E-06   2.30531380337968E-15   3.00000000000000E+00
      3.00000000000000E+00   0.00000000000000E+00   0.00000000000000E+00   0.00000000000000E+00   0.00000000000000E+00
      0.00000000000000E+00   3.37462212290396E-15
      4.24444444444445E-02
      0.00000000000000E+00   0.00000000000000E+00   0.00000000000000E+00   0.00000000000000E+00   1.77673702768150E-17
     -2.02299774899089E-16  -1.84532404622274E-16  -7.93307332915307E-15   0.00000000000000E+00   0.00000000000000E+00
      0.00000000000000E+00   0.00000000000000E+00  -6.17176198882986E-06  -6.08738193156775E-25  -6.17176198882986E-06
      2.18179267557475E-15   1.27333333333333E-01   1.27333333333333E-01   0.00000000000000E+00   0.00000000000000E+00
      6.17176198901435E-06   3.71526415760152E-20   6.17176198901439E-06   2.40521371804999E-15   3.00000000000000E+00
      3.00000000000000E+00   0.00000000000000E+00   0.00000000000000E+00   0.00000000000000E+00   0.00000000000000E+00
      0.00000000000000E+00   3.34606693552832E-15
      6.74444444444444E-02
      0.00000000000000E+00   0.00000000000000E+00   0.00000000000000E+00   0.00000000000000E+00  -1.19692362691736E-17
     -3.12704763242412E-16  -3.24673999511586E-16  -8.03359273362488E-15   0.00000000000000E+00   0.00000000000000E+00
      0.00000000000000E+00   0.00000000000000E+00  -7.41300445187734E-06  -7.22829496888475E-25  -7.41300445187734E-06
      2.18177774273466E-15   2.02333333333333E-01   2.02333333333333E-01   0.00000000000000E+00   0.00000000000000E+00
      7.41300445220197E-06   3.56578625925801E-20   7.41300445220201E-06   2.53449431798355E-15   3.00000000000000E+00
      3.00000000000000E+00   0.00000000000000E+00   0.00000000000000E+00   0.00000000000000E+00   0.00000000000000E+00
      0.00000000000000E+00   3.31732067290667E-15
      9.24444444444444E-02
      0.00000000000000E+00   0.00000000000000E+00   0.00000000000000E+00   0.00000000000000E+00   1.02121511807218E-17
     -4.39081619088164E-16  -4.28869467907442E-16  -8.14153322984890E-15   0.00000000000000E+00   0.00000000000000E+00
      0.00000000000000E+00   0.00000000000000E+00  -7.78408753780659E-06  -7.78704496430299E-25  -7.78408753780659E-06
      2.18177323154983E-15   2.77333333333333E-01   2.77333333333333E-01   0.00000000000000E+00   0.00000000000000E+00
      7.78408753823540E-06   5.08927187406104E-20   7.78408753823545E-06   2.66230344967491E-15   3.00000000000000E+00
      3.00000000000000E+00   0.00000000000000E+00   0.00000000000000E+00   0.00000000000000E+00   0.00000000000000E+00
      0.00000000000000E+00   3.29745654862416E-15
      1.17444444444444E-01
      0.00000000000000E+00   0.00000000000000E+00   0.00000000000000E+00   0.00000000000000E+00  -2.67270751432350E-17
     -5.86371613735867E-16  -6.13098688879102E-16  -8.25232972001554E-15   0.00000000000000E+00   0.00000000000000E+00
      0.00000000000000E+00   0.00000000000000E+00  -7.91088001145934E-06  -7.94057605395259E-25  -7.91088001145934E-06
      2.18177168513519E-15   3.52333333333333E-01   3.52333333333333E-01   0.00000000000000E+00   0.00000000000000E+00
      7.91088001207238E-06   5.10272273135244E-20   7.91088001207243E-06   2.78861204149293E-15   3.00000000000000E+00
      3.00000000000000E+00   0.00000000000000E+00   0.00000000000000E+00   0.00000000000000E+00   0.00000000000000E+00
      0.00000000000000E+00   3.28194599338743E-15
      1.42444444444444E-01
      0.00000000000000E+00   0.00000000000000E+00   0.00000000000000E+00   0.00000000000000E+00  -3.08574904144388E-17
     -7.56064440176945E-16  -7.86921930591384E-16  -8.36317403234253E-15   0.00000000000000E+00   0.00000000000000E+00
      0.00000000000000E+00   0.00000000000000E+00  -7.98705842357600E-06  -7.79663106843461E-25  -7.98705842357600E-06
      2.18177075479415E-15   4.27333333333333E-01   4.27333333333333E-01   0.00000000000000E+00   0.00000000000000E+00
      7.98705842436286E-06   5.10562136004024E-20   7.98705842436291E-06   2.91322173347948E-15   3.00000000000000E+00
      3.00000000000000E+00   0.00000000000000E+00   0.00000000000000E+00   0.00000000000000E+00   0.00000000000000E+00
      0.00000000000000E+00   3.26818154406891E-15
      1.67444444444444E-01
      0.00000000000000E+00   0.00000000000000E+00   0.00000000000000E+00   0.00000000000000E+00   6.16372459869372E-19
     -9.58013785415434E-16  -9.57397412955565E-16  -8.47310844288614E-15   0.00000000000000E+00   0.00000000000000E+00
      0.00000000000000E+00   0.00000000000000E+00  -8.04222355988332E-06  -7.80139303098301E-25  -8.04222355988332E-06
      2.18177008050008E-15   5.02333333333333E-01   5.02333333333333E-01   0.00000000000000E+00   0.00000000000000E+00
      8.04222356084066E-06   5.10559171440059E-20   8.04222356084071E-06   3.03578487353533E-15   3.00000000000000E+00
      3.00000000000000E+00   0.00000000000000E+00   0.00000000000000E+00   0.00000000000000E+00   0.00000000000000E+00
      0.00000000000000E+00   3.25555348885073E-15
      1.92444444444444E-01
      0.00000000000000E+00   0.00000000000000E+00   0.00000000000000E+00   0.00000000000000E+00  -3.07951900042968E-17
     -1.20071615769422E-15  -1.23151134769852E-15  -8.58123970530613E-15   0.00000000000000E+00   0.00000000000000E+00
      0.00000000000000E+00   0.00000000000000E+00  -8.08653891852700E-06  -7.83621686063306E-25  -8.08653891852700E-06
      2.18176953847084E-15   5.77333333333333E-01   5.77333333333333E-01   0.00000000000000E+00   0.00000000000000E+00
      8.08653891975846E-06   5.10587614315198E-20   8.08653891975851E-06   3.15578454959312E-15   3.00000000000000E+00
      3.00000000000000E+00   0.00000000000000E+00   0.00000000000000E+00   0.00000000000000E+00   0.00000000000000E+00
      0.00000000000000E+00   3.24368561724217E-15
      2.17444444444444E-01
      0.00000000000000E+00   0.00000000000000E+00   0.00000000000000E+00   0.00000000000000E+00   7.59774595406161E-18
     -1.45383938783461E-15  -1.44624164188054E-15  -8.68671268720970E-15   0.00000000000000E+00   0.00000000000000E+00
      0.00000000000000E+00   0.00000000000000E+00  -8.12438925363587E-06  -7.85381716195770E-25  -8.12438925363587E-06
      2.18176907526638E-15   6.52333333333333E-01   6.52333333333333E-01   0.00000000000000E+00   0.00000000000000E+00
      8.12438925508206E-06   5.10655142905220E-20   8.12438925508211E-06   3.27257825616295E-15   3.00000000000000E+00
      3.00000000000000E+00   0.00000000000000E+00   0.00000000000000E+00   0.00000000000000E+00   0.00000000000000E+00
      0.00000000000000E+00   3.23236535578037E-15
      2.42444444444444E-01
      0.00000000000000E+00   0.00000000000000E+00   0.00000000000000E+00   0.00000000000000E+00   2.46748605828811E-17
     -1.64461330255688E-15  -1.61993844197400E-15  -8.78878253571084E-15   0.00000000000000E+00   0.00000000000000E+00
      0.00000000000000E+00   0.00000000000000E+00  -8.15798299782964E-06  -7.89990851626260E-25  -8.15798299782964E-06
      2.18176866395998E-15   7.27333333333333E-01   7.27333333333333E-01   0.00000000000000E+00   0.00000000000000E+00
      8.15798299944952E-06   5.10740738349213E-20   8.15798299944957E-06   3.38554370630393E-15   3.00000000000000E+00
      3.00000000000000E+00   0.00000000000000E+00   0.00000000000000E+00   0.00000000000000E+00   0.00000000000000E+00
      0.00000000000000E+00   3.22147016544692E-15
      2.67444444444444E-01
      0.00000000000000E+00   0.00000000000000E+00   0.00000000000000E+00   0.00000000000000E+00   6.97671855468674E-19
     -1.75665730205402E-15  -1.75595963019855E-15  -8.88716780316657E-15   0.00000000000000E+00   0.00000000000000E+00
      0.00000000000000E+00   0.00000000000000E+00  -8.18816498682565E-06  -7.98016770933465E-25  -8.18816498682565E-06
      2.18176829427049E-15   8.02333333333333E-01   8.02333333333333E-01   0.00000000000000E+00   0.00000000000000E+00
      8.18816498858155E-06   5.10831318150974E-20   8.18816498858160E-06   3.49440116043636E-15   3.00000000000000E+00
      3.00000000000000E+00   0.00000000000000E+00   0.00000000000000E+00   0.00000000000000E+00   0.00000000000000E+00
      0.00000000000000E+00   3.21099834845972E-15
      2.92444444444444E-01
      0.00000000000000E+00   0.00000000000000E+00   0.00000000000000E+00   0.00000000000000E+00   1.84248876673479E-17
     -1.82464841366660E-15  -1.80622352599925E-15  -8.98231544390401E-15   0.00000000000000E+00   0.00000000000000E+00
      0.00000000000000E+00   0.00000000000000E+00  -8.21520369185414E-06  -8.04419386135333E-25  -8.21520369185414E-06
      2.18176796295730E-15   8.77333333333333E-01   8.77333333333334E-01   0.00000000000000E+00   0.00000000000000E+00
      8.21520369366031E-06   5.10921087083896E-20   8.21520369366036E-06   3.59952760339831E-15   3.00000000000000E+00
      3.00000000000000E+00   0.00000000000000E+00   0.00000000000000E+00   0.00000000000000E+00   0.00000000000000E+00
      0.00000000000000E+00   3.20101987754841E-15
      3.17444444444444E-01
      0.00000000000000E+00   0.00000000000000E+00   0.00000000000000E+00   0.00000000000000E+00   1.06216675765167E-17
     -1.86711935559610E-15  -1.85649768801959E-15  -9.07535053909497E-15   0.00000000000000E+00   0.00000000000000E+00
      0.00000000000000E+00   0.00000000000000E+00  -8.23913314968162E-06  -8.02915245855246E-25  -8.23913314968162E-06
      2.18176766964422E-15   9.52333333333333E-01   9.52333333333333E-01   0.00000000000000E+00   0.00000000000000E+00
      8.23913315153805E-06   5.11008696802342E-20   8.23913315153810E-06   3.70193362495075E-15   3.00000000000000E+00
      3.00000000000000E+00   0.00000000000000E+00   0.00000000000000E+00   0.00000000000000E+00   0.00000000000000E+00
      0.00000000000000E+00   3.19164924449999E-15
      3.42444444444444E-01
      0.00000000000000E+00   0.00000000000000E+00   0.00000000000000E+00   0.00000000000000E+00   4.20507443311922E-18
     -1.89547769469904E-15  -1.89127262026592E-15  -9.16756537300703E-15   0.00000000000000E+00   0.00000000000000E+00
      0.00000000000000E+00   0.00000000000000E+00  -8.26004383626617E-06  -8.13719396202678E-25  -8.26004383626617E-06
      2.18176741325772E-15   1.02733333333333E+00   1.02733333333333E+00   0.00000000000000E+00   0.00000000000000E+00
      8.26004383815739E-06   5.11094625244344E-20   8.26004383815744E-06   3.80280928881385E-15   3.00000000000000E+00
      3.00000000000000E+00   0.00000000000000E+00   0.00000000000000E+00   0.00000000000000E+00   0.00000000000000E+00
      0.00000000000000E+00   3.18298867093547E-15
      3.67444444444445E-01
      0.00000000000000E+00   0.00000000000000E+00   0.00000000000000E+00   0.00000000000000E+00  -1.89771819848783E-18
     -1.91908269155307E-15  -1.92098040975156E-15  -9.25990618155026E-15   0.00000000000000E+00   0.00000000000000E+00
      0.00000000000000E+00   0.00000000000000E+00  -8.27826357705746E-06  -8.06570277931007E-25  -8.27826357705746E-06
      2.18176718980738E-15   1.10233333333333E+00   1.10233333333333E+00   0.00000000000000E+00   0.00000000000000E+00
      8.27826357897838E-06   5.11179522062484E-20   8.27826357897843E-06   3.90307701073810E-15   3.00000000000000E+00
      3.00000000000000E+00   0.00000000000000E+00   0.00000000000000E+00   0.00000000000000E+00   0.00000000000000E+00
      0.00000000000000E+00   3.17506198100477E-15
      3.92444444444445E-01
      0.00000000000000E+00   0.00000000000000E+00   0.00000000000000E+00   0.00000000000000E+00  -1.03002543368503E-19
     -1.94267005489056E-15  -1.94277305743393E-15  -9.35279883947425E-15   0.00000000000000E+00   0.00000000000000E+00
      0.00000000000000E+00   0.00000000000000E+00  -8.29434681421176E-06  -8.20413608626190E-25  -8.29434681421176E-06
      2.18176699251493E-15   1.17733333333333E+00   1.17733333333333E+00   0.00000000000000E+00   0.00000000000000E+00
      8.29434681615448E-06   5.11263917818041E-20   8.29434681615453E-06   4.00324685044947E-15   3.00000000000000E+00
      3.00000000000000E+00   0.00000000000000E+00   0.00000000000000E+00   0.00000000000000E+00   0.00000000000000E+00
      0.00000000000000E+00   3.16778499650986E-15
      4.17444444444445E-01
      0.00000000000000E+00   0.00000000000000E+00   0.00000000000000E+00   0.00000000000000E+00   2.38224895236173E-15
     -1.96579644481751E-15   4.16452507544222E-16  -9.44620053266220E-15   0.00000000000000E+00   0.00000000000000E+00
      0.00000000000000E+00   0.00000000000000E+00  -8.30893259601504E-06  -8.04070312353758E-25  -8.30893259601504E-06
      2.18176681355551E-15   1.25233333333333E+00   1.25233333333333E+00   0.00000000000000E+00   0.00000000000000E+00
      8.30893259559852E-06   5.11348478825234E-20   8.30893259559857E-06   4.10344315547351E-15   3.00000000000000E+00
      3.00000000000000E+00   0.00000000000000E+00   0.00000000000000E+00   0.00000000000000E+00   0.00000000000000E+00
      0.00000000000000E+00   3.16099056363318E-15
      4.42444444444445E-01
      0.00000000000000E+00   0.00000000000000E+00   0.00000000000000E+00   0.00000000000000E+00   2.78901541232046E-16
     -1.98632807505289E-15  -1.70742653382084E-15  -9.53976950855525E-15   0.00000000000000E+00   0.00000000000000E+00
      0.00000000000000E+00   0.00000000000000E+00  -8.32261774716659E-06  -8.10521036629429E-25  -8.32261774716659E-06
      2.18176664561503E-15   1.32733333333333E+00   1.32733333333333E+00   0.00000000000000E+00   0.00000000000000E+00
      8.32261774887397E-06   5.11436216826161E-20   8.32261774887402E-06   4.20352360114015E-15   3.00000000000000E+00
      3.00000000000000E+00   0.00000000000000E+00   0.00000000000000E+00   0.00000000000000E+00   0.00000000000000E+00
      0.00000000000000E+00   3.15447926180008E-15
      4.67444444444445E-01
      0.00000000000000E+00   0.00000000000000E+00   0.00000000000000E+00   0.00000000000000E+00   3.72802929295157E-17
     -2.00460129375366E-15  -1.96732100082415E-15  -9.63321511302256E-15   0.00000000000000E+00   0.00000000000000E+00
      0.00000000000000E+00   0.00000000000000E+00  -8.33576958833773E-06  -8.18356226042170E-25  -8.33576958833773E-06
      2.18176648419062E-15   1.40233333333333E+00   1.40233333333333E+00   0.00000000000000E+00   0.00000000000000E+00
      8.33576959030499E-06   5.11527512867766E-20   8.33576959030505E-06   4.30332916175202E-15   3.00000000000000E+00
      3.00000000000000E+00   0.00000000000000E+00   0.00000000000000E+00   0.00000000000000E+00   0.00000000000000E+00
      0.00000000000000E+00   3.14811946707994E-15
      4.92444444444445E-01
      0.00000000000000E+00   0.00000000000000E+00   0.00000000000000E+00   0.00000000000000E+00   3.06028889506131E-18
     -2.02160563274882E-15  -2.01854534385375E-15  -9.72642747074376E-15   0.00000000000000E+00   0.00000000000000E+00
      0.00000000000000E+00   0.00000000000000E+00  -8.34850694540772E-06  -8.14920618222046E-25  -8.34850694540772E-06
      2.18176632782684E-15   1.47733333333333E+00   1.47733333333333E+00   0.00000000000000E+00   0.00000000000000E+00
      8.34850694742621E-06   5.11618607645657E-20   8.34850694742626E-06   4.40278690159546E-15   3.00000000000000E+00
      3.00000000000000E+00   0.00000000000000E+00   0.00000000000000E+00   0.00000000000000E+00   0.00000000000000E+00
      0.00000000000000E+00   3.14187424132146E-15
      5.17444444444445E-01
      0.00000000000000E+00   0.00000000000000E+00   0.00000000000000E+00   0.00000000000000E+00   5.22161047717829E-17
     -2.03960443887395E-15  -1.98738833410216E-15  -9.81938356661173E-15   0.00000000000000E+00   0.00000000000000E+00
      0.00000000000000E+00   0.00000000000000E+00  -8.36083509120784E-06  -8.19665428946504E-25  -8.36083509120784E-06
      2.18176617646151E-15   1.55233333333333E+00   1.55233333333333E+00   0.00000000000000E+00   0.00000000000000E+00
      8.36083509319517E-06   5.11707026913369E-20   8.36083509319522E-06   4.50186416273018E-15   3.00000000000000E+00
      3.00000000000000E+00   0.00000000000000E+00   0.00000000000000E+00   0.00000000000000E+00   0.00000000000000E+00
      0.00000000000000E+00   3.13575322742004E-15
      5.42444444444445E-01
      0.00000000000000E+00   0.00000000000000E+00   0.00000000000000E+00   0.00000000000000E+00   7.52832873549987E-17
     -2.06434378438742E-15  -1.98906049703242E-15  -9.91207853033122E-15   0.00000000000000E+00   0.00000000000000E+00
      0.00000000000000E+00   0.00000000000000E+00  -8.37273372294330E-06  -8.16617565051443E-25  -8.37273372294330E-06
      2.18176603034641E-15   1.62733333333333E+00   1.62733333333333E+00   0.00000000000000E+00   0.00000000000000E+00
      8.37273372493230E-06   5.11792336793348E-20   8.37273372493235E-06   4.60053588381380E-15   3.00000000000000E+00
      3.00000000000000E+00   0.00000000000000E+00   0.00000000000000E+00   0.00000000000000E+00   0.00000000000000E+00
      0.00000000000000E+00   3.12977661617101E-15
      5.67444444444445E-01
      0.00000000000000E+00   0.00000000000000E+00   0.00000000000000E+00   0.00000000000000E+00   5.78771505637813E-17
     -2.10576102687005E-15  -2.04788387630627E-15  -1.00044938966483E-14   0.00000000000000E+00   0.00000000000000E+00
      0.00000000000000E+00   0.00000000000000E+00  -8.38421331050568E-06  -8.17646999024492E-25  -8.38421331050568E-06
      2.18176588935563E-15   1.70233333333333E+00   1.70233333333333E+00   0.00000000000000E+00   0.00000000000000E+00
      8.38421331255351E-06   5.11874730012196E-20   8.38421331255356E-06   4.69877934051627E-15   3.00000000000000E+00
      3.00000000000000E+00   0.00000000000000E+00   0.00000000000000E+00   0.00000000000000E+00   0.00000000000000E+00
      0.00000000000000E+00   3.12394866677643E-15
      5.92444444444445E-01
      0.00000000000000E+00   0.00000000000000E+00   0.00000000000000E+00   0.00000000000000E+00   1.90016697954135E-17
     -2.17784437665114E-15  -2.15884270685572E-15  -1.00965833563959E-14   0.00000000000000E+00   0.00000000000000E+00
      0.00000000000000E+00   0.00000000000000E+00  -8.39534523781168E-06  -8.18696529907909E-25  -8.39534523781168E-06
      2.18176575261413E-15   1.77733333333333E+00   1.77733333333333E+00   0.00000000000000E+00   0.00000000000000E+00
      8.39534523997047E-06   5.11954446467660E-20   8.39534523997052E-06   4.79657597549051E-15   3.00000000000000E+00
      3.00000000000000E+00   0.00000000000000E+00   0.00000000000000E+00   0.00000000000000E+00   0.00000000000000E+00
      0.00000000000000E+00   3.11824162829133E-15
      6.17444444444445E-01
      0.00000000000000E+00   0.00000000000000E+00   0.00000000000000E+00   0.00000000000000E+00  -1.66952655096748E-17
     -2.29334402380508E-15  -2.31003928931476E-15  -1.01882793379067E-14   0.00000000000000E+00   0.00000000000000E+00
      0.00000000000000E+00   0.00000000000000E+00  -8.40623387228826E-06  -8.24460808395962E-25  -8.40623387228826E-06
      2.18176561884170E-15   1.85233333333333E+00   1.85233333333333E+00   0.00000000000000E+00   0.00000000000000E+00
      8.40623387459824E-06   5.12031695252372E-20   8.40623387459829E-06   4.89390554119519E-15   3.00000000000000E+00
      3.00000000000000E+00   0.00000000000000E+00   0.00000000000000E+00   0.00000000000000E+00   0.00000000000000E+00
      0.00000000000000E+00   3.11260817786981E-15
      6.42444444444445E-01
      0.00000000000000E+00   0.00000000000000E+00   0.00000000000000E+00   0.00000000000000E+00   7.35761833788502E-18
     -2.44835726085757E-15  -2.44099964251968E-15  -1.02795056439769E-14   0.00000000000000E+00   0.00000000000000E+00
      0.00000000000000E+00   0.00000000000000E+00  -8.41696349854113E-06  -8.20408627030790E-25  -8.41696349854113E-06
      2.18176548700394E-15   1.92733333333333E+00   1.92733333333333E+00   0.00000000000000E+00   0.00000000000000E+00
      8.41696350098207E-06   5.12106640967863E-20   8.41696350098212E-06   4.99073200074921E-15   3.00000000000000E+00
      3.00000000000000E+00   0.00000000000000E+00   0.00000000000000E+00   0.00000000000000E+00   0.00000000000000E+00
      0.00000000000000E+00   3.10700815622379E-15
      6.67444444444445E-01
      0.00000000000000E+00   0.00000000000000E+00   0.00000000000000E+00   0.00000000000000E+00  -3.66417941859004E-18
     -2.60905133029489E-15  -2.61271550971348E-15  -1.03701760897148E-14   0.00000000000000E+00   0.00000000000000E+00
      0.00000000000000E+00   0.00000000000000E+00  -8.42758060252711E-06  -8.25585524167155E-25  -8.42758060252711E-06
      2.18176535653037E-15   2.00233333333333E+00   2.00233333333333E+00   0.00000000000000E+00   0.00000000000000E+00
      8.42758060513977E-06   5.12179411785154E-20   8.42758060513983E-06   5.08699183342521E-15   3.00000000000000E+00
      3.00000000000000E+00   0.00000000000000E+00   0.00000000000000E+00   0.00000000000000E+00   0.00000000000000E+00
      0.00000000000000E+00   3.10141889975925E-15
      6.92444444444445E-01
      0.00000000000000E+00   0.00000000000000E+00   0.00000000000000E+00   0.00000000000000E+00  -2.06360570710751E-17
     -2.73267135267540E-15  -2.75330740974647E-15  -1.04601850925959E-14   0.00000000000000E+00   0.00000000000000E+00
      0.00000000000000E+00   0.00000000000000E+00  -8.43810562541044E-06  -8.26203805261457E-25  -8.43810562541044E-06
      2.18176522717034E-15   2.07733333333333E+00   2.07733333333333E+00   0.00000000000000E+00   0.00000000000000E+00
      8.43810562816369E-06   5.12250093538331E-20   8.43810562816374E-06   5.18258951042347E-15   3.00000000000000E+00
      3.00000000000000E+00   0.00000000000000E+00   0.00000000000000E+00   0.00000000000000E+00   0.00000000000000E+00
      0.00000000000000E+00   3.09583035500212E-15
      7.17444444444445E-01
      0.00000000000000E+00   0.00000000000000E+00   0.00000000000000E+00   0.00000000000000E+00   4.21889878515194E-17
     -2.80638099766998E-15  -2.76419200981846E-15  -1.05493976513334E-14   0.00000000000000E+00   0.00000000000000E+00
      0.00000000000000E+00   0.00000000000000E+00  -8.44854659202695E-06  -8.21353778359759E-25  -8.44854659202695E-06
      2.18176509882593E-15   2.15233333333333E+00   2.15233333333333E+00   0.00000000000000E+00   0.00000000000000E+00
      8.44854659479108E-06   5.12304678974179E-20   8.44854659479113E-06   5.27739397807198E-15   3.00000000000000E+00
      3.00000000000000E+00   0.00000000000000E+00   0.00000000000000E+00   0.00000000000000E+00   0.00000000000000E+00
      0.00000000000000E+00   3.09023857443551E-15
      7.42444444444445E-01
      0.00000000000000E+00   0.00000000000000E+00   0.00000000000000E+00   0.00000000000000E+00  -2.06941156308413E-17
     -2.84480728750194E-15  -2.86550140313279E-15  -1.06376385785461E-14   0.00000000000000E+00   0.00000000000000E+00
      0.00000000000000E+00   0.00000000000000E+00  -8.45890636764275E-06  -8.28179418933898E-25  -8.45890636764275E-06
      2.18176497146218E-15   2.22733333333333E+00   2.22733333333333E+00   0.00000000000000E+00   0.00000000000000E+00
      8.45890637050819E-06   5.12381803602410E-20   8.45890637050824E-06   5.37123142345869E-15   3.00000000000000E+00
      3.00000000000000E+00   0.00000000000000E+00   0.00000000000000E+00   0.00000000000000E+00   0.00000000000000E+00
      0.00000000000000E+00   3.08464218362519E-15
      7.67444444444445E-01
      0.00000000000000E+00   0.00000000000000E+00   0.00000000000000E+00   0.00000000000000E+00   8.10611163679063E-18
     -2.86480929618940E-15  -2.85670318455261E-15  -1.07246830529183E-14   0.00000000000000E+00   0.00000000000000E+00
      0.00000000000000E+00   0.00000000000000E+00  -8.46918588067049E-06  -8.37037059783605E-25  -8.46918588067049E-06
      2.18176484506693E-15   2.30233333333333E+00   2.30233333333333E+00   0.00000000000000E+00   0.00000000000000E+00
      8.46918588352714E-06   5.12449763792672E-20   8.46918588352719E-06   5.46387736773809E-15   3.00000000000000E+00
      3.00000000000000E+00   0.00000000000000E+00   0.00000000000000E+00   0.00000000000000E+00   0.00000000000000E+00
      0.00000000000000E+00   3.07904084011324E-15
      7.92444444444445E-01
      0.00000000000000E+00   0.00000000000000E+00   0.00000000000000E+00   0.00000000000000E+00  -1.96721485221473E-17
     -2.87612955291067E-15  -2.89580170143282E-15  -1.08102581993347E-14   0.00000000000000E+00   0.00000000000000E+00
      0.00000000000000E+00   0.00000000000000E+00  -8.47938556782698E-06  -8.33414138346368E-25  -8.47938556782698E-06
      2.18176471963687E-15   2.37733333333333E+00   2.37733333333333E+00   0.00000000000000E+00   0.00000000000000E+00
      8.47938557072273E-06   5.12511995514551E-20   8.47938557072278E-06   5.55505890483827E-15   3.00000000000000E+00
      3.00000000000000E+00   0.00000000000000E+00   0.00000000000000E+00   0.00000000000000E+00   0.00000000000000E+00
      0.00000000000000E+00   3.07343457485953E-15
      8.17444444444445E-01
      0.00000000000000E+00   0.00000000000000E+00   0.00000000000000E+00   0.00000000000000E+00  -1.01723935244614E-17
     -2.88348138637172E-15  -2.89365377989619E-15  -1.08940749529258E-14   0.00000000000000E+00   0.00000000000000E+00
      0.00000000000000E+00   0.00000000000000E+00  -8.48950602470460E-06  -8.29665503116045E-25  -8.48950602470460E-06
      2.18176459516443E-15   2.45233333333333E+00   2.45233333333333E+00   0.00000000000000E+00   0.00000000000000E+00
      8.48950602759819E-06   5.12571856367188E-20   8.48950602759824E-06   5.64448684573034E-15   3.00000000000000E+00
      3.00000000000000E+00   0.00000000000000E+00   0.00000000000000E+00   0.00000000000000E+00   0.00000000000000E+00
      0.00000000000000E+00   3.06782351203106E-15
      8.42444444444445E-01
      0.00000000000000E+00   0.00000000000000E+00   0.00000000000000E+00   0.00000000000000E+00  -9.15342121116117E-18
     -2.88947634301553E-15  -2.89862976422669E-15  -1.09759105484275E-14   0.00000000000000E+00   0.00000000000000E+00
      0.00000000000000E+00   0.00000000000000E+00  -8.49954827137429E-06  -8.25563547580226E-25  -8.49954827137429E-06
      2.18176447163743E-15   2.52733333333333E+00   2.52733333333333E+00   0.00000000000000E+00   0.00000000000000E+00
      8.49954827427286E-06   5.12629235123589E-20   8.49954827427291E-06   5.73193832263139E-15   3.00000000000000E+00
      3.00000000000000E+00   0.00000000000000E+00   0.00000000000000E+00   0.00000000000000E+00   0.00000000000000E+00
      0.00000000000000E+00   3.06220775415869E-15
      8.67444444444445E-01
      0.00000000000000E+00   0.00000000000000E+00   0.00000000000000E+00   0.00000000000000E+00   4.55480788296566E-18