DF-ISE text

Info {
  version   = 1.0
  type      = xyplot
  datasets  = [
    "time"
    "substrate OuterVoltage" "substrate InnerVoltage" "substrate QuasiFermiPotential" "substrate DisplacementCurrent" "substrate eCurrent"
    "substrate hCurrent" "substrate TotalCurrent" "substrate Charge" "source OuterVoltage" "source InnerVoltage"
    "source QuasiFermiPotential" "source DisplacementCurrent" "source eCurrent" "source hCurrent" "source TotalCurrent"
    "source Charge" "drain OuterVoltage" "drain InnerVoltage" "drain QuasiFermiPotential" "drain DisplacementCurrent"
    "drain eCurrent" "drain hCurrent" "drain TotalCurrent" "drain Charge" "gate OuterVoltage"
    "gate InnerVoltage" "gate QuasiFermiPotential" "gate DisplacementCurrent" "gate eCurrent" "gate hCurrent"
    "gate TotalCurrent" "gate Charge" ]
  functions = [
    Time
    OuterVoltage InnerVoltage QuasiFermiPotential DisplacementCurrent eCurrent
    hCurrent TotalCurrent Charge OuterVoltage InnerVoltage
    QuasiFermiPotential DisplacementCurrent eCurrent hCurrent TotalCurrent
    Charge OuterVoltage InnerVoltage QuasiFermiPotential DisplacementCurrent
    eCurrent hCurrent TotalCurrent Charge OuterVoltage
    InnerVoltage QuasiFermiPotential DisplacementCurrent eCurrent hCurrent
    TotalCurrent Charge ]
}

Data {
      0.00000000000000E+00
      0.00000000000000E+00   0.00000000000000E+00   0.00000000000000E+00   0.00000000000000E+00  -2.73741649632481E-17
      3.79595977611418E-28  -2.73741649628685E-17  -6.44163974703177E-15   0.00000000000000E+00   0.00000000000000E+00
      0.00000000000000E+00   0.00000000000000E+00   1.28286882833475E-17  -5.82065500071775E-30   1.28286882833417E-17
      1.76604100823404E-15   0.00000000000000E+00   0.00000000000000E+00   0.00000000000000E+00   0.00000000000000E+00
      1.45454766799005E-17  -3.73731739615864E-28   1.45454766795268E-17   1.76604100823404E-15   3.00000000000000E+00
      3.00000000000000E+00   0.00000000000000E+00   0.00000000000000E+00   0.00000000000000E+00   0.00000000000000E+00
      0.00000000000000E+00   2.90955773056368E-15
      1.00000000000000E-02
      0.00000000000000E+00   0.00000000000000E+00   0.00000000000000E+00   0.00000000000000E+00   2.68929032598707E-17
     -4.02512657165731E-17  -1.33583624567025E-17  -6.47052607999761E-15   0.00000000000000E+00   0.00000000000000E+00
      0.00000000000000E+00   0.00000000000000E+00  -2.50599073571323E-06  -2.39816317040265E-25  -2.50599073571323E-06
      1.76600278649200E-15   3.00000000000000E-02   3.00000000000000E-02   0.00000000000000E+00   0.00000000000000E+00
      2.50599073572655E-06   2.88255407778989E-20   2.50599073572658E-06   1.81050368115095E-15   3.00000000000000E+00
      3.00000000000000E+00   0.00000000000000E+00   0.00000000000000E+00   0.00000000000000E+00   0.00000000000000E+00
      0.00000000000000E+00   2.89401961235466E-15
      2.33333333333333E-02
      0.00000000000000E+00   0.00000000000000E+00   0.00000000000000E+00   0.00000000000000E+00  -3.49566800934043E-17
     -8.06857420189320E-17  -1.15642422112336E-16  -6.50989036292867E-15   0.00000000000000E+00   0.00000000000000E+00
      0.00000000000000E+00   0.00000000000000E+00  -5.11101728999169E-06  -4.91608085802549E-25  -5.11101728999169E-06
      1.76596226328798E-15   7.00000000000000E-02   7.00000000000000E-02   0.00000000000000E+00   0.00000000000000E+00
      5.11101729010730E-06   2.33201622515832E-20   5.11101729010732E-06   1.86945109382398E-15   3.00000000000000E+00
      3.00000000000000E+00   0.00000000000000E+00   0.00000000000000E+00   0.00000000000000E+00   0.00000000000000E+00
      0.00000000000000E+00   2.87447700581671E-15
      4.24444444444445E-02
      0.00000000000000E+00   0.00000000000000E+00   0.00000000000000E+00   0.00000000000000E+00   3.56289701448697E-18
     -1.32573789926300E-16  -1.29010892911813E-16  -6.56873570329511E-15   0.00000000000000E+00   0.00000000000000E+00
      0.00000000000000E+00   0.00000000000000E+00  -7.56247553064320E-06  -7.26701663114237E-25  -7.56247553064320E-06
      1.76592331351864E-15   1.27333333333333E-01   1.27333333333333E-01   0.00000000000000E+00   0.00000000000000E+00
      7.56247553077218E-06   2.03192227128713E-20   7.56247553077221E-06   1.95332199403041E-15   3.00000000000000E+00
      3.00000000000000E+00   0.00000000000000E+00   0.00000000000000E+00   0.00000000000000E+00   0.00000000000000E+00
      0.00000000000000E+00   2.84949039574606E-15
      6.74444444444444E-02
      0.00000000000000E+00   0.00000000000000E+00   0.00000000000000E+00   0.00000000000000E+00  -1.59756433588951E-17
     -2.08205637376023E-16  -2.24181280734918E-16  -6.65139330870686E-15   0.00000000000000E+00   0.00000000000000E+00
      0.00000000000000E+00   0.00000000000000E+00  -9.05634883548161E-06  -8.69423554123268E-25  -9.05634883548161E-06
      1.76589916319990E-15   2.02333333333333E-01   2.02333333333333E-01   0.00000000000000E+00   0.00000000000000E+00
      9.05634883570575E-06   4.21461556614060E-20   9.05634883570579E-06   2.06197657656582E-15   3.00000000000000E+00
      3.00000000000000E+00   0.00000000000000E+00   0.00000000000000E+00   0.00000000000000E+00   0.00000000000000E+00
      0.00000000000000E+00   2.82351756894114E-15
      9.24444444444444E-02
      0.00000000000000E+00   0.00000000000000E+00   0.00000000000000E+00   0.00000000000000E+00   3.35201601361193E-18
     -3.05735295257905E-16  -3.02383279244293E-16  -6.73976571240664E-15   0.00000000000000E+00   0.00000000000000E+00
      0.00000000000000E+00   0.00000000000000E+00  -9.52217372803737E-06  -9.15617349125440E-25  -9.52217372803737E-06
      1.76589156544740E-15   2.77333333333333E-01   2.77333333333333E-01   0.00000000000000E+00   0.00000000000000E+00
      9.52217372833971E-06   4.23610677923969E-20   9.52217372833975E-06   2.16943035871250E-15   3.00000000000000E+00
      3.00000000000000E+00   0.00000000000000E+00   0.00000000000000E+00   0.00000000000000E+00   0.00000000000000E+00
      0.00000000000000E+00   2.80444378824674E-15
      1.17444444444444E-01
      0.00000000000000E+00   0.00000000000000E+00   0.00000000000000E+00   0.00000000000000E+00   1.53857040214303E-17
     -4.33192178304401E-16  -4.17806474282971E-16  -6.83055939303058E-15   0.00000000000000E+00   0.00000000000000E+00
      0.00000000000000E+00   0.00000000000000E+00  -9.69478599263442E-06  -9.29646089983357E-25  -9.69478599263442E-06
      1.76588874181502E-15   3.52333333333333E-01   3.52333333333333E-01   0.00000000000000E+00   0.00000000000000E+00
      9.69478599305217E-06   4.24454256818986E-20   9.69478599305221E-06   2.27562549336461E-15   3.00000000000000E+00
      3.00000000000000E+00   0.00000000000000E+00   0.00000000000000E+00   0.00000000000000E+00   0.00000000000000E+00
      0.00000000000000E+00   2.78904515785095E-15
      1.42444444444444E-01
      0.00000000000000E+00   0.00000000000000E+00   0.00000000000000E+00   0.00000000000000E+00  -2.51914785909926E-17
     -5.93671446937009E-16  -6.18862925528001E-16  -6.92157353913143E-15   0.00000000000000E+00   0.00000000000000E+00
      0.00000000000000E+00   0.00000000000000E+00  -9.79971689801105E-06  -9.40708937164613E-25  -9.79971689801105E-06
      1.76588702312860E-15   4.27333333333333E-01   4.27333333333333E-01   0.00000000000000E+00   0.00000000000000E+00
      9.79971689862987E-06   4.24536147505198E-20   9.79971689862991E-06   2.38039784242856E-15   3.00000000000000E+00
      3.00000000000000E+00   0.00000000000000E+00   0.00000000000000E+00   0.00000000000000E+00   0.00000000000000E+00
      0.00000000000000E+00   2.77528867357428E-15
      1.67444444444444E-01
      0.00000000000000E+00   0.00000000000000E+00   0.00000000000000E+00   0.00000000000000E+00  -9.40145390728865E-19
     -7.96346502663495E-16  -7.97286648054224E-16  -7.01194800013388E-15   0.00000000000000E+00   0.00000000000000E+00
      0.00000000000000E+00   0.00000000000000E+00  -9.87686803567034E-06  -9.47914749996567E-25  -9.87686803567034E-06
      1.76588575838733E-15   5.02333333333333E-01   5.02333333333333E-01   0.00000000000000E+00   0.00000000000000E+00
      9.87686803646758E-06   4.24458340816876E-20   9.87686803646762E-06   2.48348070602539E-15   3.00000000000000E+00
      3.00000000000000E+00   0.00000000000000E+00   0.00000000000000E+00   0.00000000000000E+00   0.00000000000000E+00
      0.00000000000000E+00   2.76258153572115E-15
      1.92444444444444E-01
      0.00000000000000E+00   0.00000000000000E+00   0.00000000000000E+00   0.00000000000000E+00  -1.37658865539179E-17
     -1.04060570143616E-15  -1.05437158799008E-15  -7.10097048276567E-15   0.00000000000000E+00   0.00000000000000E+00
      0.00000000000000E+00   0.00000000000000E+00  -9.93900497144286E-06  -9.54688089361395E-25  -9.93900497144286E-06
      1.76588473911618E-15   5.77333333333333E-01   5.77333333333333E-01   0.00000000000000E+00   0.00000000000000E+00
      9.93900497249719E-06   4.24444414215528E-20   9.93900497249723E-06   2.58446303504178E-15   3.00000000000000E+00
      3.00000000000000E+00   0.00000000000000E+00   0.00000000000000E+00   0.00000000000000E+00   0.00000000000000E+00
      0.00000000000000E+00   2.75062270860771E-15
      2.17444444444444E-01
      0.00000000000000E+00   0.00000000000000E+00   0.00000000000000E+00   0.00000000000000E+00  -1.26451664344068E-18
     -1.26763524110819E-15  -1.26889975775163E-15  -7.18787995144644E-15   0.00000000000000E+00   0.00000000000000E+00
      0.00000000000000E+00   0.00000000000000E+00  -9.99238602817467E-06  -9.58329032250179E-25  -9.99238602817467E-06
      1.76588386300337E-15   6.52333333333333E-01   6.52333333333333E-01   0.00000000000000E+00   0.00000000000000E+00
      9.99238602944352E-06   4.24481455956988E-20   9.99238602944356E-06   2.68281254309606E-15   3.00000000000000E+00
      3.00000000000000E+00   0.00000000000000E+00   0.00000000000000E+00   0.00000000000000E+00   0.00000000000000E+00
      0.00000000000000E+00   2.73918354534700E-15
      2.42444444444444E-01
      0.00000000000000E+00   0.00000000000000E+00   0.00000000000000E+00   0.00000000000000E+00   1.32539855023042E-17
     -1.41773806021694E-15  -1.40448407471464E-15  -7.27205028308263E-15   0.00000000000000E+00   0.00000000000000E+00
      0.00000000000000E+00   0.00000000000000E+00  -1.00400529115568E-05  -9.65600500243701E-25  -1.00400529115568E-05
      1.76588308030648E-15   7.27333333333333E-01   7.27333333333333E-01   0.00000000000000E+00   0.00000000000000E+00
      1.00400529129612E-05   4.24544473718698E-20   1.00400529129613E-05   2.77802743052851E-15   3.00000000000000E+00
      3.00000000000000E+00   0.00000000000000E+00   0.00000000000000E+00   0.00000000000000E+00   0.00000000000000E+00
      0.00000000000000E+00   2.72813977224764E-15
      2.67444444444444E-01
      0.00000000000000E+00   0.00000000000000E+00   0.00000000000000E+00   0.00000000000000E+00   1.26915530149896E-17
     -1.50321618692635E-15  -1.49052463391136E-15  -7.35329483345968E-15   0.00000000000000E+00   0.00000000000000E+00
      0.00000000000000E+00   0.00000000000000E+00  -1.00832867990489E-05  -9.69502614749058E-25  -1.00832867990489E-05
      1.76588237009968E-15   8.02333333333333E-01   8.02333333333333E-01   0.00000000000000E+00   0.00000000000000E+00
      1.00832868005394E-05   4.24617279985996E-20   1.00832868005394E-05   2.86994254175747E-15   3.00000000000000E+00
      3.00000000000000E+00   0.00000000000000E+00   0.00000000000000E+00   0.00000000000000E+00   0.00000000000000E+00
      0.00000000000000E+00   2.71746992160255E-15
      2.92444444444444E-01
      0.00000000000000E+00   0.00000000000000E+00   0.00000000000000E+00   0.00000000000000E+00   1.43784941427841E-17
     -1.55316911589356E-15  -1.53879062175078E-15  -7.43207915892102E-15   0.00000000000000E+00   0.00000000000000E+00
      0.00000000000000E+00   0.00000000000000E+00  -1.01225497251347E-05  -9.71669188121325E-25  -1.01225497251347E-05
      1.76588172487644E-15   8.77333333333333E-01   8.77333333333333E-01   0.00000000000000E+00   0.00000000000000E+00
      1.01225497266734E-05   4.24692181006903E-20   1.01225497266735E-05   2.95897841641376E-15   3.00000000000000E+00
      3.00000000000000E+00   0.00000000000000E+00   0.00000000000000E+00   0.00000000000000E+00   0.00000000000000E+00
      0.00000000000000E+00   2.70721901763083E-15
      3.17444444444444E-01
      0.00000000000000E+00   0.00000000000000E+00   0.00000000000000E+00   0.00000000000000E+00  -3.17648290000062E-17
     -1.58326547967083E-15  -1.61503030867083E-15  -7.50937380481084E-15   0.00000000000000E+00   0.00000000000000E+00
      0.00000000000000E+00   0.00000000000000E+00  -1.01579483857097E-05  -9.75225178478031E-25  -1.01579483857097E-05
      1.76588114295368E-15   9.52333333333333E-01   9.52333333333333E-01   0.00000000000000E+00   0.00000000000000E+00
      1.01579483873247E-05   4.24766695116045E-20   1.01579483873247E-05   3.04601938549701E-15   3.00000000000000E+00
      3.00000000000000E+00   0.00000000000000E+00   0.00000000000000E+00   0.00000000000000E+00   0.00000000000000E+00
      0.00000000000000E+00   2.69747327636017E-15
      3.42444444444444E-01
      0.00000000000000E+00   0.00000000000000E+00   0.00000000000000E+00   0.00000000000000E+00   1.26855121295556E-17
     -1.60479519963022E-15  -1.59210968750066E-15  -7.58619163971277E-15   0.00000000000000E+00   0.00000000000000E+00
      0.00000000000000E+00   0.00000000000000E+00  -1.01896040692664E-05  -9.80327218777827E-25  -1.01896040692664E-05
      1.76588062239938E-15   1.02733333333333E+00   1.02733333333333E+00   0.00000000000000E+00   0.00000000000000E+00
      1.01896040708585E-05   4.24840415522174E-20   1.01896040708585E-05   3.13199685483139E-15   3.00000000000000E+00
      3.00000000000000E+00   0.00000000000000E+00   0.00000000000000E+00   0.00000000000000E+00   0.00000000000000E+00
      0.00000000000000E+00   2.68831416248201E-15
      3.67444444444445E-01
      0.00000000000000E+00   0.00000000000000E+00   0.00000000000000E+00   0.00000000000000E+00  -1.20517708588977E-17
     -1.62378166267912E-15  -1.63583343353802E-15  -7.66325462720532E-15   0.00000000000000E+00   0.00000000000000E+00
      0.00000000000000E+00   0.00000000000000E+00  -1.02178661104990E-05  -9.80934892774132E-25  -1.02178661104990E-05
      1.76588015752103E-15   1.10233333333333E+00   1.10233333333333E+00   0.00000000000000E+00   0.00000000000000E+00
      1.02178661121348E-05   4.24913402933067E-20   1.02178661121348E-05   3.21760417320960E-15   3.00000000000000E+00
      3.00000000000000E+00   0.00000000000000E+00   0.00000000000000E+00   0.00000000000000E+00   0.00000000000000E+00
      0.00000000000000E+00   2.67977029647468E-15
      3.92444444444445E-01
      0.00000000000000E+00   0.00000000000000E+00   0.00000000000000E+00   0.00000000000000E+00   1.02718372235087E-17
     -1.64091553322764E-15  -1.63064369600413E-15  -7.74090584868743E-15   0.00000000000000E+00   0.00000000000000E+00
      0.00000000000000E+00   0.00000000000000E+00  -1.02433182867876E-05  -9.83172364546231E-25  -1.02433182867876E-05
      1.76587973875672E-15   1.17733333333333E+00   1.17733333333333E+00   0.00000000000000E+00   0.00000000000000E+00
      1.02433182884182E-05   4.24986033713352E-20   1.02433182884183E-05   3.30323284573018E-15   3.00000000000000E+00
      3.00000000000000E+00   0.00000000000000E+00   0.00000000000000E+00   0.00000000000000E+00   0.00000000000000E+00
      0.00000000000000E+00   2.67179326420052E-15
      4.17444444444445E-01
      0.00000000000000E+00   0.00000000000000E+00   0.00000000000000E+00   0.00000000000000E+00   6.41351295617314E-18
     -1.65507457827524E-15  -1.64866106531906E-15  -7.81910602646176E-15   0.00000000000000E+00   0.00000000000000E+00
      0.00000000000000E+00   0.00000000000000E+00  -1.02666871205580E-05  -9.85914423287971E-25  -1.02666871205580E-05
      1.76587935418190E-15   1.25233333333333E+00   1.25233333333333E+00   0.00000000000000E+00   0.00000000000000E+00
      1.02666871222067E-05   4.25059631987040E-20   1.02666871222067E-05   3.38896582485395E-15   3.00000000000000E+00
      3.00000000000000E+00   0.00000000000000E+00   0.00000000000000E+00   0.00000000000000E+00   0.00000000000000E+00
      0.00000000000000E+00   2.66426084742591E-15
      4.42444444444445E-01
      0.00000000000000E+00   0.00000000000000E+00   0.00000000000000E+00   0.00000000000000E+00   1.98999696718519E-15
     -1.66740338863465E-15   3.22593578550542E-16  -7.89752129654195E-15   0.00000000000000E+00   0.00000000000000E+00
      0.00000000000000E+00   0.00000000000000E+00  -1.02887162977532E-05  -9.89547444832672E-25  -1.02887162977532E-05
      1.76587899157652E-15   1.32733333333333E+00   1.32733333333333E+00   0.00000000000000E+00   0.00000000000000E+00
      1.02887162974305E-05   4.25135582714358E-20   1.02887162974306E-05   3.47463493129334E-15   3.00000000000000E+00
      3.00000000000000E+00   0.00000000000000E+00   0.00000000000000E+00   0.00000000000000E+00   0.00000000000000E+00
      0.00000000000000E+00   2.65700737367209E-15
      4.67444444444445E-01
      0.00000000000000E+00   0.00000000000000E+00   0.00000000000000E+00   0.00000000000000E+00   6.01994999350076E-17
     -1.68034353487287E-15  -1.62014403493787E-15  -7.97583588586099E-15   0.00000000000000E+00   0.00000000000000E+00
      0.00000000000000E+00   0.00000000000000E+00  -1.03099022464778E-05  -9.89005895143077E-25  -1.03099022464778E-05
      1.76587864278038E-15   1.40233333333333E+00   1.40233333333333E+00   0.00000000000000E+00   0.00000000000000E+00
      1.03099022480979E-05   4.25214191479374E-20   1.03099022480979E-05   3.56004388089639E-15   3.00000000000000E+00
      3.00000000000000E+00   0.00000000000000E+00   0.00000000000000E+00   0.00000000000000E+00   0.00000000000000E+00
      0.00000000000000E+00   2.64991336218421E-15
      4.92444444444445E-01
      0.00000000000000E+00   0.00000000000000E+00   0.00000000000000E+00   0.00000000000000E+00   4.18487627276934E-17
     -1.69527978510695E-15  -1.65343102237926E-15  -8.05391429679759E-15   0.00000000000000E+00   0.00000000000000E+00
      0.00000000000000E+00   0.00000000000000E+00  -1.03304161358727E-05  -9.93833168486150E-25  -1.03304161358727E-05
      1.76587830498284E-15   1.47733333333333E+00   1.47733333333333E+00   0.00000000000000E+00   0.00000000000000E+00
      1.03304161375261E-05   4.25290782619640E-20   1.03304161375261E-05   3.64509253083107E-15   3.00000000000000E+00
      3.00000000000000E+00   0.00000000000000E+00   0.00000000000000E+00   0.00000000000000E+00   0.00000000000000E+00
      0.00000000000000E+00   2.64294346098370E-15
      5.17444444444445E-01
      0.00000000000000E+00   0.00000000000000E+00   0.00000000000000E+00   0.00000000000000E+00   9.60278394111994E-17
     -1.71132904220812E-15  -1.61530120279692E-15  -8.13172056358373E-15   0.00000000000000E+00   0.00000000000000E+00
      0.00000000000000E+00   0.00000000000000E+00  -1.03502777087854E-05  -9.96144178942276E-25  -1.03502777087854E-05
      1.76587797786502E-15   1.55233333333333E+00   1.55233333333333E+00   0.00000000000000E+00   0.00000000000000E+00
      1.03502777104006E-05   4.25364304381253E-20   1.03502777104007E-05   3.72973837065685E-15   3.00000000000000E+00
      3.00000000000000E+00   0.00000000000000E+00   0.00000000000000E+00   0.00000000000000E+00   0.00000000000000E+00
      0.00000000000000E+00   2.63610421506187E-15
      5.42444444444445E-01
      0.00000000000000E+00   0.00000000000000E+00   0.00000000000000E+00   0.00000000000000E+00   8.58469760174069E-17
     -1.73022358597076E-15  -1.64437660995335E-15  -8.20924355042245E-15   0.00000000000000E+00   0.00000000000000E+00
      0.00000000000000E+00   0.00000000000000E+00  -1.03694884262923E-05  -9.95501991436840E-25  -1.03694884262923E-05
      1.76587766140882E-15   1.62733333333333E+00   1.62733333333333E+00   0.00000000000000E+00   0.00000000000000E+00
      1.03694884279366E-05   4.25434811030941E-20   1.03694884279367E-05   3.81396001536791E-15   3.00000000000000E+00
      3.00000000000000E+00   0.00000000000000E+00   0.00000000000000E+00   0.00000000000000E+00   0.00000000000000E+00
      0.00000000000000E+00   2.62940587364571E-15
      5.67444444444445E-01
      0.00000000000000E+00   0.00000000000000E+00   0.00000000000000E+00   0.00000000000000E+00   4.55480082035402E-17
     -1.76043461779334E-15  -1.71488660958980E-15  -8.28646305875110E-15   0.00000000000000E+00   0.00000000000000E+00
      0.00000000000000E+00   0.00000000000000E+00  -1.03881068515420E-05  -9.97995817786094E-25  -1.03881068515420E-05
      1.76587735465503E-15   1.70233333333333E+00   1.70233333333333E+00   0.00000000000000E+00   0.00000000000000E+00
      1.03881068532569E-05   4.25502563500957E-20   1.03881068532569E-05   3.89774807715189E-15   3.00000000000000E+00
      3.00000000000000E+00   0.00000000000000E+00   0.00000000000000E+00   0.00000000000000E+00   0.00000000000000E+00
      0.00000000000000E+00   2.62283762694419E-15
      5.92444444444445E-01
      0.00000000000000E+00   0.00000000000000E+00   0.00000000000000E+00   0.00000000000000E+00   1.40753074115306E-17
     -1.81641138536103E-15  -1.80233607794950E-15  -8.36334356121425E-15   0.00000000000000E+00   0.00000000000000E+00
      0.00000000000000E+00   0.00000000000000E+00  -1.04062558041226E-05  -1.00053353593753E-24  -1.04062558041226E-05
      1.76587705558465E-15   1.77733333333333E+00   1.77733333333333E+00   0.00000000000000E+00   0.00000000000000E+00
      1.04062558059248E-05   4.25567808248320E-20   1.04062558059249E-05   3.98110243327695E-15   3.00000000000000E+00
      3.00000000000000E+00   0.00000000000000E+00   0.00000000000000E+00   0.00000000000000E+00   0.00000000000000E+00
      0.00000000000000E+00   2.61636407235264E-15
      6.17444444444445E-01
      0.00000000000000E+00   0.00000000000000E+00   0.00000000000000E+00   0.00000000000000E+00  -2.85631430774960E-18
     -1.91082378794768E-15  -1.91368010225543E-15  -8.43984541958359E-15   0.00000000000000E+00   0.00000000000000E+00
      0.00000000000000E+00   0.00000000000000E+00  -1.04240669906350E-05  -1.00127084491553E-24  -1.04240669906350E-05
      1.76587676203070E-15   1.85233333333333E+00   1.85233333333333E+00   0.00000000000000E+00   0.00000000000000E+00
      1.04240669925487E-05   4.25630751337581E-20   1.04240669925487E-05   4.06402501147541E-15   3.00000000000000E+00
      3.00000000000000E+00   0.00000000000000E+00   0.00000000000000E+00   0.00000000000000E+00   0.00000000000000E+00
      0.00000000000000E+00   2.60994364607748E-15
      6.42444444444445E-01
      0.00000000000000E+00   0.00000000000000E+00   0.00000000000000E+00   0.00000000000000E+00  -1.26731434166648E-17
     -2.03441295949561E-15  -2.04708610291227E-15  -8.51592921019243E-15   0.00000000000000E+00   0.00000000000000E+00
      0.00000000000000E+00   0.00000000000000E+00  -1.04416312489912E-05  -1.00296735694495E-24  -1.04416312489912E-05
      1.76587647249843E-15   1.92733333333333E+00   1.92733333333333E+00   0.00000000000000E+00   0.00000000000000E+00
      1.04416312510382E-05   4.25691556884957E-20   1.04416312510383E-05   4.14650587515091E-15   3.00000000000000E+00
      3.00000000000000E+00   0.00000000000000E+00   0.00000000000000E+00   0.00000000000000E+00   0.00000000000000E+00
      0.00000000000000E+00   2.60354686254309E-15
      6.67444444444445E-01
      0.00000000000000E+00   0.00000000000000E+00   0.00000000000000E+00   0.00000000000000E+00  -2.34055620946215E-17
     -2.15015400703396E-15  -2.17355956912858E-15  -8.59154420005678E-15   0.00000000000000E+00   0.00000000000000E+00
      0.00000000000000E+00   0.00000000000000E+00  -1.04589969531799E-05  -1.00293909167788E-24  -1.04589969531799E-05
      1.76587618619225E-15   2.00233333333333E+00   2.00233333333333E+00   0.00000000000000E+00   0.00000000000000E+00
      1.04589969553534E-05   4.25750349345458E-20   1.04589969553535E-05   4.22850968278873E-15   3.00000000000000E+00
      3.00000000000000E+00   0.00000000000000E+00   0.00000000000000E+00   0.00000000000000E+00   0.00000000000000E+00
      0.00000000000000E+00   2.59715833107580E-15
      6.92444444444445E-01
      0.00000000000000E+00   0.00000000000000E+00   0.00000000000000E+00   0.00000000000000E+00   2.21922375216803E-17
     -2.22926215913404E-15  -2.20706992161236E-15  -8.66661551643370E-15   0.00000000000000E+00   0.00000000000000E+00
      0.00000000000000E+00   0.00000000000000E+00  -1.04761886148361E-05  -1.00585649824038E-24  -1.04761886148361E-05
      1.76587590270954E-15   2.07733333333333E+00   2.07733333333333E+00   0.00000000000000E+00   0.00000000000000E+00
      1.04761886170431E-05   4.25807217095272E-20   1.04761886170431E-05   4.30996866208745E-15   3.00000000000000E+00
      3.00000000000000E+00   0.00000000000000E+00   0.00000000000000E+00   0.00000000000000E+00   0.00000000000000E+00
      0.00000000000000E+00   2.59077095163669E-15
      7.17444444444445E-01
      0.00000000000000E+00   0.00000000000000E+00   0.00000000000000E+00   0.00000000000000E+00   1.25836494984211E-17
     -2.27469279427267E-15  -2.26210914477425E-15  -8.74103544605662E-15   0.00000000000000E+00   0.00000000000000E+00
      0.00000000000000E+00   0.00000000000000E+00  -1.04932197297485E-05  -1.00619896073713E-24  -1.04932197297485E-05
      1.76587562182949E-15   2.15233333333333E+00   2.15233333333333E+00   0.00000000000000E+00   0.00000000000000E+00
      1.04932197320105E-05   4.25856334287516E-20   1.04932197320106E-05   4.39077825687158E-15   3.00000000000000E+00
      3.00000000000000E+00   0.00000000000000E+00   0.00000000000000E+00   0.00000000000000E+00   0.00000000000000E+00
      0.00000000000000E+00   2.58438156735555E-15
      7.42444444444445E-01
      0.00000000000000E+00   0.00000000000000E+00   0.00000000000000E+00   0.00000000000000E+00   4.31920241518834E-18
     -2.30220431176149E-15  -2.29788510934630E-15  -8.81465608818822E-15   0.00000000000000E+00   0.00000000000000E+00
      0.00000000000000E+00   0.00000000000000E+00  -1.05100991800121E-05  -1.00941537858605E-24  -1.05100991800121E-05
      1.76587534340635E-15   2.22733333333333E+00   2.22733333333333E+00   0.00000000000000E+00   0.00000000000000E+00
      1.05100991823100E-05   4.25914653451424E-20   1.05100991823100E-05   4.47079206517659E-15   3.00000000000000E+00
      3.00000000000000E+00   0.00000000000000E+00   0.00000000000000E+00   0.00000000000000E+00   0.00000000000000E+00
      0.00000000000000E+00   2.57798867960528E-15
      7.67444444444445E-01
      0.00000000000000E+00   0.00000000000000E+00   0.00000000000000E+00   0.00000000000000E+00  -1.89530110805353E-17
     -2.32231116549540E-15  -2.34126417657594E-15  -8.88728473652048E-15   0.00000000000000E+00   0.00000000000000E+00
      0.00000000000000E+00   0.00000000000000E+00  -1.05268338152000E-05  -1.01135998960466E-24  -1.05268338152000E-05
      1.76587506732710E-15   2.30233333333333E+00   2.30233333333333E+00   0.00000000000000E+00   0.00000000000000E+00
      1.05268338175412E-05   4.25966539681063E-20   1.05268338175412E-05   4.54981819085132E-15   3.00000000000000E+00
      3.00000000000000E+00   0.00000000000000E+00   0.00000000000000E+00   0.00000000000000E+00   0.00000000000000E+00
      0.00000000000000E+00   2.57159147834207E-15
      7.92444444444445E-01
      0.00000000000000E+00   0.00000000000000E+00   0.00000000000000E+00   0.00000000000000E+00  -1.96795249387424E-18
     -2.33878544266499E-15  -2.34075339515886E-15  -8.95869011132256E-15   0.00000000000000E+00   0.00000000000000E+00
      0.00000000000000E+00   0.00000000000000E+00  -1.05434294360441E-05  -1.01294119469515E-24  -1.05434294360441E-05
      1.76587479349917E-15   2.37733333333333E+00   2.37733333333333E+00   0.00000000000000E+00   0.00000000000000E+00
      1.05434294383848E-05   4.26015763464229E-20   1.05434294383848E-05   4.62762586398492E-15   3.00000000000000E+00
      3.00000000000000E+00   0.00000000000000E+00   0.00000000000000E+00   0.00000000000000E+00   0.00000000000000E+00
      0.00000000000000E+00   2.56518945383845E-15
      8.17444444444445E-01
      0.00000000000000E+00   0.00000000000000E+00   0.00000000000000E+00   0.00000000000000E+00   2.15064948363338E-17
     -2.35311789006673E-15  -2.33161139523040E-15  -9.02863627722686E-15   0.00000000000000E+00   0.00000000000000E+00
      0.00000000000000E+00   0.00000000000000E+00  -1.05598912068974E-05  -1.01564893163090E-24  -1.05598912068974E-05
      1.76587452183756E-15   2.45233333333333E+00   2.45233333333333E+00   0.00000000000000E+00   0.00000000000000E+00
      1.05598912092289E-05   4.26062909215914E-20   1.05598912092290E-05   4.70397952332986E-15   3.00000000000000E+00
      3.00000000000000E+00   0.00000000000000E+00   0.00000000000000E+00   0.00000000000000E+00   0.00000000000000E+00
      0.00000000000000E+00   2.55878223205945E-15
      8.42444444444445E-01
      0.00000000000000E+00   0.00000000000000E+00   0.00000000000000E+00   0.00000000000000E+00  -1.85840736182104E-18
     -2.36575894043642E-15  -2.36761734779824E-15  -9.09696004428294E-15   0.00000000000000E+00   0.00000000000000E+00
      0.00000000000000E+00   0.00000000000000E+00  -1.05762238530445E-05  -1.01486950290459E-24  -1.05762238530445E-05
      1.76587425226526E-15   2.52733333333333E+00   2.52733333333333E+00   0.00000000000000E+00   0.00000000000000E+00
      1.05762238554121E-05   4.26107938985748E-20   1.05762238554121E-05   4.77871628894073E-15   3.00000000000000E+00
      3.00000000000000E+00   0.00000000000000E+00   0.00000000000000E+00   0.00000000000000E+00   0.00000000000000E+00
      0.00000000000000E+00   2.55236950307696E-15
      8.67444444444445E-01
      0.00000000000000E+00   0.00000000000000E+00   0.00000000000000E+00   0.00000000000000E+00   5.24890375400781E-18