DF-ISE text

Info {
  version   = 1.0
  type      = xyplot
  datasets  = [
    "time"
    "substrate OuterVoltage" "substrate InnerVoltage" "substrate QuasiFermiPotential" "substrate DisplacementCurrent" "substrate eCurrent"
    "substrate hCurrent" "substrate TotalCurrent" "substrate Charge" "source OuterVoltage" "source InnerVoltage"
    "source QuasiFermiPotential" "source DisplacementCurrent" "source eCurrent" "source hCurrent" "source TotalCurrent"
    "source Charge" "drain OuterVoltage" "drain InnerVoltage" "drain QuasiFermiPotential" "drain DisplacementCurrent"
    "drain eCurrent" "drain hCurrent" "drain TotalCurrent" "drain Charge" "gate OuterVoltage"
    "gate InnerVoltage" "gate QuasiFermiPotential" "gate DisplacementCurrent" "gate eCurrent" "gate hCurrent"
    "gate TotalCurrent" "gate Charge" ]
  functions = [
    Time
    OuterVoltage InnerVoltage QuasiFermiPotential DisplacementCurrent eCurrent
    hCurrent TotalCurrent Charge OuterVoltage InnerVoltage
    QuasiFermiPotential DisplacementCurrent eCurrent hCurrent TotalCurrent
    Charge OuterVoltage InnerVoltage QuasiFermiPotential DisplacementCurrent
    eCurrent hCurrent TotalCurrent Charge OuterVoltage
    InnerVoltage QuasiFermiPotential DisplacementCurrent eCurrent hCurrent
    TotalCurrent Charge ]
}

Data {
      0.00000000000000E+00
      0.00000000000000E+00   0.00000000000000E+00   0.00000000000000E+00   0.00000000000000E+00   9.71094670841291E-19
     -1.68697106663241E-27   9.71094669154320E-19  -4.69308784477985E-15   0.00000000000000E+00   0.00000000000000E+00
      0.00000000000000E+00   0.00000000000000E+00  -8.39084561354035E-19   1.25081711674095E-27  -8.39084560103218E-19
      1.23481687991630E-15   0.00000000000000E+00   0.00000000000000E+00   0.00000000000000E+00   0.00000000000000E+00
     -1.32010109487209E-19   4.36107636553889E-28  -1.32010109051102E-19   1.23481687991630E-15   3.00000000000000E+00
      3.00000000000000E+00   0.00000000000000E+00   0.00000000000000E+00   0.00000000000000E+00   0.00000000000000E+00
      0.00000000000000E+00   2.22345408494725E-15
      1.00000000000000E-02
      0.00000000000000E+00   0.00000000000000E+00   0.00000000000000E+00   0.00000000000000E+00  -1.05866716121819E-18
     -3.67373248334517E-17  -3.77959919946699E-17  -4.71509263323825E-15   0.00000000000000E+00   0.00000000000000E+00
      0.00000000000000E+00   0.00000000000000E+00  -3.62902219531860E-06  -3.20905940589279E-25  -3.62902219531860E-06
      1.23476268503044E-15   3.00000000000000E-02   3.00000000000000E-02   0.00000000000000E+00   0.00000000000000E+00
      3.62902219535638E-06   2.08245304913356E-20   3.62902219535640E-06   1.26893038032381E-15   3.00000000000000E+00
      3.00000000000000E+00   0.00000000000000E+00   0.00000000000000E+00   0.00000000000000E+00   0.00000000000000E+00
      0.00000000000000E+00   2.21139956788399E-15
      2.33333333333333E-02
      0.00000000000000E+00   0.00000000000000E+00   0.00000000000000E+00   0.00000000000000E+00   8.17613399932510E-17
     -7.03875886958176E-17   1.13737512974334E-17  -4.74494151030213E-15   0.00000000000000E+00   0.00000000000000E+00
      0.00000000000000E+00   0.00000000000000E+00  -7.32322132331079E-06  -6.45153054317107E-25  -7.32322132331079E-06
      1.23470608053440E-15   7.00000000000000E-02   7.00000000000000E-02   0.00000000000000E+00   0.00000000000000E+00
      7.32322132329938E-06   2.78352861487621E-20   7.32322132329941E-06   1.31414449229724E-15   3.00000000000000E+00
      3.00000000000000E+00   0.00000000000000E+00   0.00000000000000E+00   0.00000000000000E+00   0.00000000000000E+00
      0.00000000000000E+00   2.19609093747050E-15
      4.24444444444445E-02
      0.00000000000000E+00   0.00000000000000E+00   0.00000000000000E+00   0.00000000000000E+00  -1.13754075772417E-14
     -1.08130757076694E-16  -1.14835383343184E-14  -4.78923196567310E-15   0.00000000000000E+00   0.00000000000000E+00
      0.00000000000000E+00   0.00000000000000E+00  -1.06901199733485E-05  -9.42769481299149E-25  -1.06901199733485E-05
      1.23465304779092E-15   1.27333333333333E-01   1.27333333333333E-01   0.00000000000000E+00   0.00000000000000E+00
      1.06901199848320E-05   2.72702660450144E-20   1.06901199848320E-05   1.37845150366950E-15   3.00000000000000E+00
      3.00000000000000E+00   0.00000000000000E+00   0.00000000000000E+00   0.00000000000000E+00   0.00000000000000E+00
      0.00000000000000E+00   2.17612741421268E-15
      6.74444444444444E-02
      0.00000000000000E+00   0.00000000000000E+00   0.00000000000000E+00   0.00000000000000E+00  -3.47388950065649E-17
     -1.57693390151655E-16  -1.92432285158220E-16  -4.85071115489154E-15   0.00000000000000E+00   0.00000000000000E+00
      0.00000000000000E+00   0.00000000000000E+00  -1.26786641797372E-05  -1.11724431265605E-24  -1.26786641797372E-05
      1.23462101090624E-15   2.02333333333333E-01   2.02333333333333E-01   0.00000000000000E+00   0.00000000000000E+00
      1.26786641799296E-05   2.14209387653806E-20   1.26786641799296E-05   1.46172916724692E-15   3.00000000000000E+00
      3.00000000000000E+00   0.00000000000000E+00   0.00000000000000E+00   0.00000000000000E+00   0.00000000000000E+00
      0.00000000000000E+00   2.15436097673838E-15
      9.24444444444444E-02
      0.00000000000000E+00   0.00000000000000E+00   0.00000000000000E+00   0.00000000000000E+00  -2.98491413765707E-18
     -2.22053926565106E-16  -2.25038840702763E-16  -4.91566493078481E-15   0.00000000000000E+00   0.00000000000000E+00
      0.00000000000000E+00   0.00000000000000E+00  -1.33467758930534E-05  -1.17567784767975E-24  -1.33467758930534E-05
      1.23461011932865E-15   2.77333333333333E-01   2.77333333333333E-01   0.00000000000000E+00   0.00000000000000E+00
      1.33467758932784E-05   6.31103009437061E-20   1.33467758932785E-05   1.54408072451341E-15   3.00000000000000E+00
      3.00000000000000E+00   0.00000000000000E+00   0.00000000000000E+00   0.00000000000000E+00   0.00000000000000E+00
      0.00000000000000E+00   2.13697408694275E-15
      1.17444444444444E-01
      0.00000000000000E+00   0.00000000000000E+00   0.00000000000000E+00   0.00000000000000E+00  -3.05123876669894E-17
     -3.15272308993925E-16  -3.45784696660914E-16  -4.98215968027298E-15   0.00000000000000E+00   0.00000000000000E+00
      0.00000000000000E+00   0.00000000000000E+00  -1.36494034221005E-05  -1.20418333700637E-24  -1.36494034221005E-05
      1.23460516391170E-15   3.52333333333333E-01   3.52333333333333E-01   0.00000000000000E+00   0.00000000000000E+00
      1.36494034224462E-05   3.12848395953264E-20   1.36494034224463E-05   1.62551717504510E-15   3.00000000000000E+00
      3.00000000000000E+00   0.00000000000000E+00   0.00000000000000E+00   0.00000000000000E+00   0.00000000000000E+00
      0.00000000000000E+00   2.12203734131618E-15
      1.42444444444444E-01
      0.00000000000000E+00   0.00000000000000E+00   0.00000000000000E+00   0.00000000000000E+00   6.93342763130429E-19
     -4.41467303652061E-16  -4.40773960888930E-16  -5.04911677923238E-15   0.00000000000000E+00   0.00000000000000E+00
      0.00000000000000E+00   0.00000000000000E+00  -1.38464537102724E-05  -1.22086374454651E-24  -1.38464537102724E-05
      1.23460192980445E-15   4.27333333333333E-01   4.27333333333333E-01   0.00000000000000E+00   0.00000000000000E+00
      1.38464537107131E-05   3.12700622336157E-20   1.38464537107131E-05   1.70600966934157E-15   3.00000000000000E+00
      3.00000000000000E+00   0.00000000000000E+00   0.00000000000000E+00   0.00000000000000E+00   0.00000000000000E+00
      0.00000000000000E+00   2.10850518008636E-15
      1.67444444444444E-01
      0.00000000000000E+00   0.00000000000000E+00   0.00000000000000E+00   0.00000000000000E+00  -6.53347924210563E-19
     -5.94591853797698E-16  -5.95245201721908E-16  -5.11588336707727E-15   0.00000000000000E+00   0.00000000000000E+00
      0.00000000000000E+00   0.00000000000000E+00  -1.39975136526872E-05  -1.23360823884515E-24  -1.39975136526872E-05
      1.23459944648825E-15   5.02333333333333E-01   5.02333333333333E-01   0.00000000000000E+00   0.00000000000000E+00
      1.39975136532824E-05   3.12632556119370E-20   1.39975136532825E-05   1.78543423001863E-15   3.00000000000000E+00
      3.00000000000000E+00   0.00000000000000E+00   0.00000000000000E+00   0.00000000000000E+00   0.00000000000000E+00
      0.00000000000000E+00   2.09584969057039E-15
      1.92444444444444E-01
      0.00000000000000E+00   0.00000000000000E+00   0.00000000000000E+00   0.00000000000000E+00  -1.21176802953388E-18
     -7.69791095916670E-16  -7.71002863946204E-16  -5.18201203743083E-15   0.00000000000000E+00   0.00000000000000E+00
      0.00000000000000E+00   0.00000000000000E+00  -1.41226835237969E-05  -1.24452575009469E-24  -1.41226835237969E-05
      1.23459738611896E-15   5.77333333333333E-01   5.77333333333333E-01   0.00000000000000E+00   0.00000000000000E+00
      1.41226835245678E-05   3.12621720952502E-20   1.41226835245678E-05   1.86357369602907E-15   3.00000000000000E+00
      3.00000000000000E+00   0.00000000000000E+00   0.00000000000000E+00   0.00000000000000E+00   0.00000000000000E+00
      0.00000000000000E+00   2.08384095528280E-15
      2.17444444444444E-01
      0.00000000000000E+00   0.00000000000000E+00   0.00000000000000E+00   0.00000000000000E+00   6.60017945177871E-19
     -9.31456625715281E-16  -9.30796607770103E-16  -5.24695672135269E-15   0.00000000000000E+00   0.00000000000000E+00
      0.00000000000000E+00   0.00000000000000E+00  -1.42321747119478E-05  -1.25279018746668E-24  -1.42321747119478E-05
      1.23459558183736E-15   6.52333333333333E-01   6.52333333333333E-01   0.00000000000000E+00   0.00000000000000E+00
      1.42321747128786E-05   3.12650984805077E-20   1.42321747128786E-05   1.94007683722131E-15   3.00000000000000E+00
      3.00000000000000E+00   0.00000000000000E+00   0.00000000000000E+00   0.00000000000000E+00   0.00000000000000E+00
      0.00000000000000E+00   2.07228430229402E-15
      2.42444444444444E-01
      0.00000000000000E+00   0.00000000000000E+00   0.00000000000000E+00   0.00000000000000E+00  -7.31513606426302E-20
     -1.02953572986457E-15  -1.02960888122521E-15  -5.31021769183592E-15   0.00000000000000E+00   0.00000000000000E+00
      0.00000000000000E+00   0.00000000000000E+00  -1.43314961357809E-05  -1.26359985748145E-24  -1.43314961357809E-05
      1.23459394352514E-15   7.27333333333333E-01   7.27333333333333E-01   0.00000000000000E+00   0.00000000000000E+00
      1.43314961368105E-05   3.12698878490992E-20   1.43314961368105E-05   2.01457109684170E-15   3.00000000000000E+00
      3.00000000000000E+00   0.00000000000000E+00   0.00000000000000E+00   0.00000000000000E+00   0.00000000000000E+00
      0.00000000000000E+00   2.06105265146908E-15
      2.67444444444444E-01
      0.00000000000000E+00   0.00000000000000E+00   0.00000000000000E+00   0.00000000000000E+00  -4.79427250727717E-20
     -1.07483684675822E-15  -1.07488478948329E-15  -5.37158060307960E-15   0.00000000000000E+00   0.00000000000000E+00
      0.00000000000000E+00   0.00000000000000E+00  -1.44231967400690E-05  -1.27155473256695E-24  -1.44231967400690E-05
      1.23459242954802E-15   8.02333333333333E-01   8.02333333333333E-01   0.00000000000000E+00   0.00000000000000E+00
      1.44231967411438E-05   3.12752932962008E-20   1.44231967411439E-05   2.08688766365195E-15   3.00000000000000E+00
      3.00000000000000E+00   0.00000000000000E+00   0.00000000000000E+00   0.00000000000000E+00   0.00000000000000E+00
      0.00000000000000E+00   2.05010050987963E-15
      2.92444444444444E-01
      0.00000000000000E+00   0.00000000000000E+00   0.00000000000000E+00   0.00000000000000E+00   8.14016561994108E-20
     -1.09896416429996E-15  -1.09888276264376E-15  -5.43129967937500E-15   0.00000000000000E+00   0.00000000000000E+00
      0.00000000000000E+00   0.00000000000000E+00  -1.45083862116629E-05  -1.27857853050365E-24  -1.45083862116629E-05
      1.23459102188580E-15   8.77333333333333E-01   8.77333333333334E-01   0.00000000000000E+00   0.00000000000000E+00
      1.45083862127618E-05   3.12807780057270E-20   1.45083862127618E-05   2.15727439177659E-15   3.00000000000000E+00
      3.00000000000000E+00   0.00000000000000E+00   0.00000000000000E+00   0.00000000000000E+00   0.00000000000000E+00
      0.00000000000000E+00   2.03943426571262E-15
      3.17444444444444E-01
      0.00000000000000E+00   0.00000000000000E+00   0.00000000000000E+00   0.00000000000000E+00   5.29047124182847E-19
     -1.11762856528266E-15  -1.11709951815848E-15  -5.49002915459983E-15   0.00000000000000E+00   0.00000000000000E+00
      0.00000000000000E+00   0.00000000000000E+00  -1.45874929435833E-05  -1.28802211491862E-24  -1.45874929435833E-05
      1.23458971370919E-15   9.52333333333333E-01   9.52333333333333E-01   0.00000000000000E+00   0.00000000000000E+00
      1.45874929447004E-05   3.12861987215145E-20   1.45874929447004E-05   2.22634365479479E-15   3.00000000000000E+00
      3.00000000000000E+00   0.00000000000000E+00   0.00000000000000E+00   0.00000000000000E+00   0.00000000000000E+00
      0.00000000000000E+00   2.02909578609587E-15
      3.42444444444444E-01
      0.00000000000000E+00   0.00000000000000E+00   0.00000000000000E+00   0.00000000000000E+00   2.49264053958490E-19
     -1.13243810235421E-15  -1.13218883830025E-15  -5.54846597344410E-15   0.00000000000000E+00   0.00000000000000E+00
      0.00000000000000E+00   0.00000000000000E+00  -1.46608890249824E-05  -1.29348857500457E-24  -1.46608890249824E-05
      1.23458849908297E-15   1.02733333333333E+00   1.02733333333333E+00   0.00000000000000E+00   0.00000000000000E+00
      1.46608890261145E-05   3.12915426777977E-20   1.46608890261146E-05   2.29475168001458E-15   3.00000000000000E+00
      3.00000000000000E+00   0.00000000000000E+00   0.00000000000000E+00   0.00000000000000E+00   0.00000000000000E+00
      0.00000000000000E+00   2.01912579434654E-15
      3.67444444444445E-01
      0.00000000000000E+00   0.00000000000000E+00   0.00000000000000E+00   0.00000000000000E+00  -3.77635687245627E-19
     -1.14258712721756E-15  -1.14296476290480E-15  -5.60710673284091E-15   0.00000000000000E+00   0.00000000000000E+00
      0.00000000000000E+00   0.00000000000000E+00  -1.47291393126577E-05  -1.29918434264497E-24  -1.47291393126577E-05
      1.23458736884653E-15   1.10233333333333E+00   1.10233333333333E+00   0.00000000000000E+00   0.00000000000000E+00
      1.47291393138006E-05   3.12968195195391E-20   1.47291393138007E-05   2.36297974615932E-15   3.00000000000000E+00
      3.00000000000000E+00   0.00000000000000E+00   0.00000000000000E+00   0.00000000000000E+00   0.00000000000000E+00
      0.00000000000000E+00   2.00953961783506E-15
      3.92444444444445E-01
      0.00000000000000E+00   0.00000000000000E+00   0.00000000000000E+00   0.00000000000000E+00   4.54445200775637E-19
     -1.14922639227730E-15  -1.14877194707653E-15  -5.66622369554979E-15   0.00000000000000E+00   0.00000000000000E+00
      0.00000000000000E+00   0.00000000000000E+00  -1.47929387039263E-05  -1.30414215964401E-24  -1.47929387039263E-05
      1.23458631164677E-15   1.17733333333333E+00   1.17733333333333E+00   0.00000000000000E+00   0.00000000000000E+00
      1.47929387050750E-05   3.13020569144427E-20   1.47929387050750E-05   2.43131090133184E-15   3.00000000000000E+00
      3.00000000000000E+00   0.00000000000000E+00   0.00000000000000E+00   0.00000000000000E+00   0.00000000000000E+00
      0.00000000000000E+00   2.00032648257118E-15
      4.17444444444445E-01
      0.00000000000000E+00   0.00000000000000E+00   0.00000000000000E+00   0.00000000000000E+00   5.04429644493457E-19
     -1.15397685212533E-15  -1.15347242248084E-15  -5.72589175480850E-15   0.00000000000000E+00   0.00000000000000E+00
      0.00000000000000E+00   0.00000000000000E+00  -1.48529634993422E-05  -1.30985889746966E-24  -1.48529634993422E-05
      1.23458531640099E-15   1.25233333333333E+00   1.25233333333333E+00   0.00000000000000E+00   0.00000000000000E+00
      1.48529635004956E-05   3.13073589136495E-20   1.48529635004957E-05   2.49985023763572E-15   3.00000000000000E+00
      3.00000000000000E+00   0.00000000000000E+00   0.00000000000000E+00   0.00000000000000E+00   0.00000000000000E+00
      0.00000000000000E+00   1.99145620077180E-15
      4.42444444444445E-01
      0.00000000000000E+00   0.00000000000000E+00   0.00000000000000E+00   0.00000000000000E+00   5.65777856521964E-19
     -1.15901176946969E-15  -1.15844599161316E-15  -5.78592761688315E-15   0.00000000000000E+00   0.00000000000000E+00
      0.00000000000000E+00   0.00000000000000E+00  -1.49100596654550E-05  -1.31494345461683E-24  -1.49100596654550E-05
      1.23458436917800E-15   1.32733333333333E+00   1.32733333333333E+00   0.00000000000000E+00   0.00000000000000E+00
      1.49100596666134E-05   3.13128877397337E-20   1.49100596666134E-05   2.56848941673786E-15   3.00000000000000E+00
      3.00000000000000E+00   0.00000000000000E+00   0.00000000000000E+00   0.00000000000000E+00   0.00000000000000E+00
      0.00000000000000E+00   1.98285383096729E-15
      4.67444444444445E-01
      0.00000000000000E+00   0.00000000000000E+00   0.00000000000000E+00   0.00000000000000E+00   8.57940759685193E-15
     -1.16706760424971E-15   7.41233999260221E-15  -5.84599405092089E-15   0.00000000000000E+00   0.00000000000000E+00
      0.00000000000000E+00   0.00000000000000E+00  -1.49650691790740E-05  -1.31904031143274E-24  -1.49650691790740E-05
      1.23458345607733E-15   1.40233333333333E+00   1.40233333333333E+00   0.00000000000000E+00   0.00000000000000E+00
      1.49650691716617E-05   3.13185206415205E-20   1.49650691716617E-05   2.63698544065807E-15   3.00000000000000E+00
      3.00000000000000E+00   0.00000000000000E+00   0.00000000000000E+00   0.00000000000000E+00   0.00000000000000E+00
      0.00000000000000E+00   1.97442515418549E-15
      4.92444444444445E-01
      0.00000000000000E+00   0.00000000000000E+00   0.00000000000000E+00   0.00000000000000E+00   1.83995458265237E-16
     -1.18040709516401E-15  -9.96411636898773E-16  -5.90582139083059E-15   0.00000000000000E+00   0.00000000000000E+00
      0.00000000000000E+00   0.00000000000000E+00  -1.50185514947167E-05  -1.32467402476761E-24  -1.50185514947167E-05
      1.23458256785947E-15   1.47733333333333E+00   1.47733333333333E+00   0.00000000000000E+00   0.00000000000000E+00
      1.50185514957131E-05   3.13240308189100E-20   1.50185514957131E-05   2.70513423905487E-15   3.00000000000000E+00
      3.00000000000000E+00   0.00000000000000E+00   0.00000000000000E+00   0.00000000000000E+00   0.00000000000000E+00
      0.00000000000000E+00   1.96610458391626E-15
      5.17444444444445E-01
      0.00000000000000E+00   0.00000000000000E+00   0.00000000000000E+00   0.00000000000000E+00  -7.19347411570746E-19
     -1.19840833086295E-15  -1.19912767827452E-15  -5.96529056281902E-15   0.00000000000000E+00   0.00000000000000E+00
      0.00000000000000E+00   0.00000000000000E+00  -1.50707281178965E-05  -1.32809202975628E-24  -1.50707281178965E-05
      1.23458170088128E-15   1.55233333333333E+00   1.55233333333333E+00   0.00000000000000E+00   0.00000000000000E+00
      1.50707281190956E-05   3.13292974568511E-20   1.50707281190956E-05   2.77283800822554E-15   3.00000000000000E+00
      3.00000000000000E+00   0.00000000000000E+00   0.00000000000000E+00   0.00000000000000E+00   0.00000000000000E+00
      0.00000000000000E+00   1.95787085371219E-15
      5.42444444444445E-01
      0.00000000000000E+00   0.00000000000000E+00   0.00000000000000E+00   0.00000000000000E+00  -2.59708610111036E-19
     -1.21810949034791E-15  -1.21836919895802E-15  -6.02437174607919E-15   0.00000000000000E+00   0.00000000000000E+00
      0.00000000000000E+00   0.00000000000000E+00  -1.51216492202334E-05  -1.33372969887529E-24  -1.51216492202334E-05
      1.23458085434049E-15   1.62733333333333E+00   1.62733333333333E+00   0.00000000000000E+00   0.00000000000000E+00
      1.51216492214517E-05   3.13343422233356E-20   1.51216492214517E-05   2.84006373448488E-15   3.00000000000000E+00
      3.00000000000000E+00   0.00000000000000E+00   0.00000000000000E+00   0.00000000000000E+00   0.00000000000000E+00
      0.00000000000000E+00   1.94972715725382E-15
      5.67444444444445E-01
      0.00000000000000E+00   0.00000000000000E+00   0.00000000000000E+00   0.00000000000000E+00   2.67873961892288E-18
     -1.24165819441357E-15  -1.23897945479464E-15  -6.08306495534838E-15   0.00000000000000E+00   0.00000000000000E+00
      0.00000000000000E+00   0.00000000000000E+00  -1.51713273314433E-05  -1.33870739698811E-24  -1.51713273314433E-05
      1.23458002805865E-15   1.70233333333333E+00   1.70233333333333E+00   0.00000000000000E+00   0.00000000000000E+00
      1.51713273326822E-05   3.13391863776196E-20   1.51713273326823E-05   2.90680292339744E-15   3.00000000000000E+00
      3.00000000000000E+00   0.00000000000000E+00   0.00000000000000E+00   0.00000000000000E+00   0.00000000000000E+00
      0.00000000000000E+00   1.94168200389227E-15
      5.92444444444445E-01
      0.00000000000000E+00   0.00000000000000E+00   0.00000000000000E+00   0.00000000000000E+00   3.01203782717945E-18
     -1.27834954869352E-15  -1.27533751086634E-15  -6.14137618799988E-15   0.00000000000000E+00   0.00000000000000E+00
      0.00000000000000E+00   0.00000000000000E+00  -1.52198177443297E-05  -1.34179624328142E-24  -1.52198177443297E-05
      1.23457922114461E-15   1.77733333333333E+00   1.77733333333333E+00   0.00000000000000E+00   0.00000000000000E+00
      1.52198177456050E-05   3.13438448621132E-20   1.52198177456050E-05   2.97306088262522E-15   3.00000000000000E+00
      3.00000000000000E+00   0.00000000000000E+00   0.00000000000000E+00   0.00000000000000E+00   0.00000000000000E+00
      0.00000000000000E+00   1.93373608423005E-15
      6.17444444444445E-01
      0.00000000000000E+00   0.00000000000000E+00   0.00000000000000E+00   0.00000000000000E+00   3.51926290759386E-18
     -1.33868323232064E-15  -1.33516396941305E-15  -6.19930862093726E-15   0.00000000000000E+00   0.00000000000000E+00
      0.00000000000000E+00   0.00000000000000E+00  -1.52672545757259E-05  -1.34529176803062E-24  -1.52672545757259E-05
      1.23457843139225E-15   1.85233333333333E+00   1.85233333333333E+00   0.00000000000000E+00   0.00000000000000E+00
      1.52672545770610E-05   3.13483336253605E-20   1.52672545770610E-05   3.03885468096059E-15   3.00000000000000E+00
      3.00000000000000E+00   0.00000000000000E+00   0.00000000000000E+00   0.00000000000000E+00   0.00000000000000E+00
      0.00000000000000E+00   1.92587550858441E-15
      6.42444444444445E-01
      0.00000000000000E+00   0.00000000000000E+00   0.00000000000000E+00   0.00000000000000E+00   1.80014931790046E-18
     -1.42090219236927E-15  -1.41910204305137E-15  -6.25685840160731E-15   0.00000000000000E+00   0.00000000000000E+00
      0.00000000000000E+00   0.00000000000000E+00  -1.53138275552462E-05  -1.34953027084374E-24  -1.53138275552462E-05
      1.23457765566432E-15   1.92733333333333E+00   1.92733333333333E+00   0.00000000000000E+00   0.00000000000000E+00
      1.53138275566653E-05   3.13526645382267E-20   1.53138275566653E-05   3.10420582579437E-15   3.00000000000000E+00
      3.00000000000000E+00   0.00000000000000E+00   0.00000000000000E+00   0.00000000000000E+00   0.00000000000000E+00
      0.00000000000000E+00   1.91807492014862E-15
      6.67444444444445E-01
      0.00000000000000E+00   0.00000000000000E+00   0.00000000000000E+00   0.00000000000000E+00  -4.76737949602198E-19
     -1.50243346677052E-15  -1.50291020472012E-15  -6.31401090691649E-15   0.00000000000000E+00   0.00000000000000E+00
      0.00000000000000E+00   0.00000000000000E+00  -1.53597206363386E-05  -1.35587183933387E-24  -1.53597206363386E-05
      1.23457689091380E-15   2.00233333333333E+00   2.00233333333333E+00   0.00000000000000E+00   0.00000000000000E+00
      1.53597206378415E-05   3.13568474674873E-20   1.53597206378415E-05   3.16912623255273E-15   3.00000000000000E+00
      3.00000000000000E+00   0.00000000000000E+00   0.00000000000000E+00   0.00000000000000E+00   0.00000000000000E+00
      0.00000000000000E+00   1.91030778344997E-15
      6.92444444444445E-01
      0.00000000000000E+00   0.00000000000000E+00   0.00000000000000E+00   0.00000000000000E+00  -2.46487736533632E-20
     -1.56292503167971E-15  -1.56294968045337E-15  -6.37073161292270E-15   0.00000000000000E+00   0.00000000000000E+00
      0.00000000000000E+00   0.00000000000000E+00  -1.54050660510133E-05  -1.35542864724063E-24  -1.54050660510133E-05
      1.23457613495021E-15   2.07733333333333E+00   2.07733333333333E+00   0.00000000000000E+00   0.00000000000000E+00
      1.54050660525762E-05   3.13608856721567E-20   1.54050660525763E-05   3.23360045033278E-15   3.00000000000000E+00
      3.00000000000000E+00   0.00000000000000E+00   0.00000000000000E+00   0.00000000000000E+00   0.00000000000000E+00
      0.00000000000000E+00   1.90255502763970E-15
      7.17444444444445E-01
      0.00000000000000E+00   0.00000000000000E+00   0.00000000000000E+00   0.00000000000000E+00  -5.77696280913856E-19
     -1.60087553197990E-15  -1.60145322826081E-15  -6.42695796861867E-15   0.00000000000000E+00   0.00000000000000E+00
      0.00000000000000E+00   0.00000000000000E+00  -1.54499456783673E-05  -1.36291973034188E-24  -1.54499456783673E-05
      1.23457538641920E-15   2.15233333333333E+00   2.15233333333333E+00   0.00000000000000E+00   0.00000000000000E+00
      1.54499456799687E-05   3.13647869874206E-20   1.54499456799687E-05   3.29757708145910E-15   3.00000000000000E+00
      3.00000000000000E+00   0.00000000000000E+00   0.00000000000000E+00   0.00000000000000E+00   0.00000000000000E+00
      0.00000000000000E+00   1.89480550074038E-15
      7.42444444444445E-01
      0.00000000000000E+00   0.00000000000000E+00   0.00000000000000E+00   0.00000000000000E+00  -5.41349846698137E-19
     -1.62250417082281E-15  -1.62304552066950E-15  -6.48259505296012E-15   0.00000000000000E+00   0.00000000000000E+00
      0.00000000000000E+00   0.00000000000000E+00  -1.54944060230114E-05  -1.36545077187092E-24  -1.54944060230114E-05
      1.23457464455421E-15   2.22733333333333E+00   2.22733333333333E+00   0.00000000000000E+00   0.00000000000000E+00
      1.54944060246344E-05   3.13685531716673E-20   1.54944060246344E-05   3.36096670918299E-15   3.00000000000000E+00
      3.00000000000000E+00   0.00000000000000E+00   0.00000000000000E+00   0.00000000000000E+00   0.00000000000000E+00
      0.00000000000000E+00   1.88705369922292E-15
      7.67444444444445E-01
      0.00000000000000E+00   0.00000000000000E+00   0.00000000000000E+00   0.00000000000000E+00  -1.22074168941205E-19
     -1.63436363250557E-15  -1.63448570667451E-15  -6.53751440456766E-15   0.00000000000000E+00   0.00000000000000E+00
      0.00000000000000E+00   0.00000000000000E+00  -1.55384740014392E-05  -1.36989808507991E-24  -1.55384740014392E-05
      1.23457390891436E-15   2.30233333333333E+00   2.30233333333333E+00   0.00000000000000E+00   0.00000000000000E+00
      1.55384740030736E-05   3.13721796395033E-20   1.55384740030737E-05   3.42364339989967E-15   3.00000000000000E+00
      3.00000000000000E+00   0.00000000000000E+00   0.00000000000000E+00   0.00000000000000E+00   0.00000000000000E+00
      0.00000000000000E+00   1.87929709575364E-15
      7.92444444444445E-01
      0.00000000000000E+00   0.00000000000000E+00   0.00000000000000E+00   0.00000000000000E+00  -6.30921066253110E-19
     -1.64157061777057E-15  -1.64220153883682E-15  -6.59155801219306E-15   0.00000000000000E+00   0.00000000000000E+00
      0.00000000000000E+00   0.00000000000000E+00  -1.55821660158200E-05  -1.37508282179089E-24  -1.55821660158200E-05
      1.23457317923355E-15   2.37733333333333E+00   2.37733333333333E+00   0.00000000000000E+00   0.00000000000000E+00
      1.55821660174621E-05   3.13756647550269E-20   1.55821660174622E-05   3.48545020793480E-15   3.00000000000000E+00
      3.00000000000000E+00   0.00000000000000E+00   0.00000000000000E+00   0.00000000000000E+00   0.00000000000000E+00
      0.00000000000000E+00   1.87153462502471E-15
      8.17444444444445E-01
      0.00000000000000E+00   0.00000000000000E+00   0.00000000000000E+00   0.00000000000000E+00  -5.52584422964138E-19
     -1.64730113006504E-15  -1.64785371448801E-15  -6.64455884859004E-15   0.00000000000000E+00   0.00000000000000E+00
      0.00000000000000E+00   0.00000000000000E+00  -1.56254926205212E-05  -1.37833897383873E-24  -1.56254926205212E-05
      1.23457245534290E-15   2.45233333333333E+00   2.45233333333333E+00   0.00000000000000E+00   0.00000000000000E+00
      1.56254926221690E-05   3.13790034281481E-20   1.56254926221690E-05   3.54622044064872E-15   3.00000000000000E+00
      3.00000000000000E+00   0.00000000000000E+00   0.00000000000000E+00   0.00000000000000E+00   0.00000000000000E+00
      0.00000000000000E+00   1.86376595259842E-15
      8.42444444444445E-01
      0.00000000000000E+00   0.00000000000000E+00   0.00000000000000E+00   0.00000000000000E+00   4.91264611833946E-19
     -1.65362706077998E-15  -1.65313579616815E-15  -6.69639148807915E-15   0.00000000000000E+00   0.00000000000000E+00
      0.00000000000000E+00   0.00000000000000E+00  -1.56684610662129E-05  -1.38061238803207E-24  -1.56684610662129E-05
      1.23457173712841E-15   2.52733333333333E+00   2.52733333333333E+00   0.00000000000000E+00   0.00000000000000E+00
      1.56684610678660E-05   3.13821934190637E-20   1.56684610678660E-05   3.60582863619375E-15   3.00000000000000E+00
      3.00000000000000E+00   0.00000000000000E+00   0.00000000000000E+00   0.00000000000000E+00   0.00000000000000E+00
      0.00000000000000E+00   1.85599111475700E-15
      8.67444444444445E-01
      0.00000000000000E+00   0.00000000000000E+00   0.00000000000000E+00   0.00000000000000E+00  -3.82083169785529E-19