DF-ISE text

Info {
  version   = 1.0
  type      = xyplot
  datasets  = [
    "time"
    "substrate OuterVoltage" "substrate InnerVoltage" "substrate QuasiFermiPotential" "substrate DisplacementCurrent" "substrate eCurrent"
    "substrate hCurrent" "substrate TotalCurrent" "substrate Charge" "source OuterVoltage" "source InnerVoltage"
    "source QuasiFermiPotential" "source DisplacementCurrent" "source eCurrent" "source hCurrent" "source TotalCurrent"
    "source Charge" "drain OuterVoltage" "drain InnerVoltage" "drain QuasiFermiPotential" "drain DisplacementCurrent"
    "drain eCurrent" "drain hCurrent" "drain TotalCurrent" "drain Charge" "gate OuterVoltage"
    "gate InnerVoltage" "gate QuasiFermiPotential" "gate DisplacementCurrent" "gate eCurrent" "gate hCurrent"
    "gate TotalCurrent" "gate Charge" ]
  functions = [
    Time
    OuterVoltage InnerVoltage QuasiFermiPotential DisplacementCurrent eCurrent
    hCurrent TotalCurrent Charge OuterVoltage InnerVoltage
    QuasiFermiPotential DisplacementCurrent eCurrent hCurrent TotalCurrent
    Charge OuterVoltage InnerVoltage QuasiFermiPotential DisplacementCurrent
    eCurrent hCurrent TotalCurrent Charge OuterVoltage
    InnerVoltage QuasiFermiPotential DisplacementCurrent eCurrent hCurrent
    TotalCurrent Charge ]
}

Data {
      0.00000000000000E+00
      0.00000000000000E+00   0.00000000000000E+00   0.00000000000000E+00   0.00000000000000E+00  -1.78957535705600E-18
     -3.66203501509299E-29  -1.78957535709262E-18  -2.13050672508745E-15   0.00000000000000E+00   0.00000000000000E+00
      0.00000000000000E+00   0.00000000000000E+00   6.78678107734419E-19   2.27510735359050E-28   6.78678107961930E-19
      5.32053003230774E-16   0.00000000000000E+00   0.00000000000000E+00   0.00000000000000E+00   0.00000000000000E+00
      1.11089724932140E-18  -1.90707837643086E-28   1.11089724913069E-18   5.32053003230774E-16   3.00000000000000E+00
      3.00000000000000E+00   0.00000000000000E+00   0.00000000000000E+00   0.00000000000000E+00   0.00000000000000E+00
      0.00000000000000E+00   1.06640071862590E-15
      1.00000000000000E-02
      0.00000000000000E+00   0.00000000000000E+00   0.00000000000000E+00   0.00000000000000E+00   1.38277754807318E-17
     -2.23456124827341E-17  -8.51783700200228E-18  -2.14486378576317E-15   0.00000000000000E+00   0.00000000000000E+00
      0.00000000000000E+00   0.00000000000000E+00  -2.29612252622220E-05  -1.45328924622778E-24  -2.29612252622220E-05
      5.31576379981745E-16   3.00000000000000E-02   3.00000000000000E-02   0.00000000000000E+00   0.00000000000000E+00
      2.29612252622305E-05   8.21724655467890E-21   2.29612252622305E-05   5.53174964599604E-16   3.00000000000000E+00
      3.00000000000000E+00   0.00000000000000E+00   0.00000000000000E+00   0.00000000000000E+00   0.00000000000000E+00
      0.00000000000000E+00   1.06011244118182E-15
      2.33333333333333E-02
      0.00000000000000E+00   0.00000000000000E+00   0.00000000000000E+00   0.00000000000000E+00  -1.60868244582591E-15
     -3.93618355122934E-17  -1.64804428133820E-15  -2.16396325526633E-15   0.00000000000000E+00   0.00000000000000E+00
      0.00000000000000E+00   0.00000000000000E+00  -4.45075809682862E-05  -2.81704535671320E-24  -4.45075809682862E-05
      5.31014463987888E-16   7.00000000000000E-02   7.00000000000000E-02   0.00000000000000E+00   0.00000000000000E+00
      4.45075809699342E-05   1.88316632562545E-20   4.45075809699342E-05   5.81107901507066E-16   3.00000000000000E+00
      3.00000000000000E+00   0.00000000000000E+00   0.00000000000000E+00   0.00000000000000E+00   0.00000000000000E+00
      0.00000000000000E+00   1.05184088977137E-15
      4.24444444444445E-02
      0.00000000000000E+00   0.00000000000000E+00   0.00000000000000E+00   0.00000000000000E+00  -4.83540068887256E-18
     -5.59339894211405E-17  -6.07693901100130E-17  -2.19145348578619E-15   0.00000000000000E+00   0.00000000000000E+00
      0.00000000000000E+00   0.00000000000000E+00  -6.30910182695756E-05  -3.99421710060289E-24  -6.30910182695756E-05
      5.30360386724953E-16   1.27333333333333E-01   1.27333333333333E-01   0.00000000000000E+00   0.00000000000000E+00
      6.30910182696363E-05   1.36715676294627E-20   6.30910182696363E-05   6.20770933563257E-16   3.00000000000000E+00
      3.00000000000000E+00   0.00000000000000E+00   0.00000000000000E+00   0.00000000000000E+00   0.00000000000000E+00
      0.00000000000000E+00   1.04032216549799E-15
      6.74444444444444E-02
      0.00000000000000E+00   0.00000000000000E+00   0.00000000000000E+00   0.00000000000000E+00   7.98064026850699E-18
     -7.89291177801507E-17  -7.09484775116437E-17  -2.22796345705888E-15   0.00000000000000E+00   0.00000000000000E+00
      0.00000000000000E+00   0.00000000000000E+00  -7.62493531975814E-05  -4.82785030393298E-24  -7.62493531975814E-05
      5.29715942553858E-16   2.02333333333333E-01   2.02333333333333E-01   0.00000000000000E+00   0.00000000000000E+00
      7.62493531976523E-05   9.74124643770648E-21   7.62493531976523E-05   6.72218129327443E-16   3.00000000000000E+00
      3.00000000000000E+00   0.00000000000000E+00   0.00000000000000E+00   0.00000000000000E+00   0.00000000000000E+00
      0.00000000000000E+00   1.02602938517758E-15
      9.24444444444444E-02
      0.00000000000000E+00   0.00000000000000E+00   0.00000000000000E+00   0.00000000000000E+00   5.47627949268704E-17
     -1.09225615940646E-16  -5.44628210137757E-17  -2.26513043681662E-15   0.00000000000000E+00   0.00000000000000E+00
      0.00000000000000E+00   0.00000000000000E+00  -8.46353731431139E-05  -5.35865461562745E-24  -8.46353731431139E-05
      5.29198067934645E-16   2.77333333333333E-01   2.77333333333333E-01   0.00000000000000E+00   0.00000000000000E+00
      8.46353731431684E-05   1.23427675455803E-20   8.46353731431684E-05   7.23388400855780E-16   3.00000000000000E+00
      3.00000000000000E+00   0.00000000000000E+00   0.00000000000000E+00   0.00000000000000E+00   0.00000000000000E+00
      0.00000000000000E+00   1.01254396802620E-15
      1.17444444444444E-01
      0.00000000000000E+00   0.00000000000000E+00   0.00000000000000E+00   0.00000000000000E+00   1.45128512974299E-16
     -1.45513742669450E-16  -3.85229695150370E-19  -2.30271717577347E-15   0.00000000000000E+00   0.00000000000000E+00
      0.00000000000000E+00   0.00000000000000E+00  -9.12460314148685E-05  -5.77807915171933E-24  -9.12460314148685E-05
      5.28732899021029E-16   3.52333333333333E-01   3.52333333333333E-01   0.00000000000000E+00   0.00000000000000E+00
      9.12460314148689E-05   1.38204998210944E-20   9.12460314148689E-05   7.74351807269761E-16   3.00000000000000E+00
      3.00000000000000E+00   0.00000000000000E+00   0.00000000000000E+00   0.00000000000000E+00   0.00000000000000E+00
      0.00000000000000E+00   9.99632469482683E-16
      1.42444444444444E-01
      0.00000000000000E+00   0.00000000000000E+00   0.00000000000000E+00   0.00000000000000E+00   3.99116966242141E-16
     -1.86355429533043E-16   2.12761536709098E-16  -2.34051711016149E-15   0.00000000000000E+00   0.00000000000000E+00
      0.00000000000000E+00   0.00000000000000E+00  -9.70017352208799E-05  -6.14286630823268E-24  -9.70017352208799E-05
      5.28289797829168E-16   4.27333333333333E-01   4.27333333333333E-01   0.00000000000000E+00   0.00000000000000E+00
      9.70017352206671E-05   1.43020364386572E-20   9.70017352206671E-05   8.25107093075148E-16   3.00000000000000E+00
      3.00000000000000E+00   0.00000000000000E+00   0.00000000000000E+00   0.00000000000000E+00   0.00000000000000E+00
      0.00000000000000E+00   9.87120219257179E-16
      1.67444444444444E-01
      0.00000000000000E+00   0.00000000000000E+00   0.00000000000000E+00   0.00000000000000E+00   2.08957231976445E-18
     -2.35415563965617E-16  -2.33325991645853E-16  -2.37843380171870E-15   0.00000000000000E+00   0.00000000000000E+00
      0.00000000000000E+00   0.00000000000000E+00  -1.02219686187924E-04  -6.47391240328503E-24  -1.02219686187924E-04
      5.27858089917939E-16   5.02333333333333E-01   5.02333333333333E-01   0.00000000000000E+00   0.00000000000000E+00
      1.02219686188157E-04   1.46900126789117E-20   1.02219686188157E-04   8.75638589564160E-16   3.00000000000000E+00
      3.00000000000000E+00   0.00000000000000E+00   0.00000000000000E+00   0.00000000000000E+00   0.00000000000000E+00
      0.00000000000000E+00   9.74937122236596E-16
      1.92444444444444E-01
      0.00000000000000E+00   0.00000000000000E+00   0.00000000000000E+00   0.00000000000000E+00  -1.88388931709075E-15
     -2.94343917383261E-16  -2.17823323447401E-15  -2.41615693619299E-15   0.00000000000000E+00   0.00000000000000E+00
      0.00000000000000E+00   0.00000000000000E+00  -1.07126767142965E-04  -6.78465743511827E-24  -1.07126767142965E-04
      5.27427209561380E-16   5.77333333333333E-01   5.77333333333333E-01   0.00000000000000E+00   0.00000000000000E+00
      1.07126767145143E-04   1.46952272666390E-20   1.07126767145143E-04   9.25773753694068E-16   3.00000000000000E+00
      3.00000000000000E+00   0.00000000000000E+00   0.00000000000000E+00   0.00000000000000E+00   0.00000000000000E+00
      0.00000000000000E+00   9.62955972937547E-16
      2.17444444444444E-01
      0.00000000000000E+00   0.00000000000000E+00   0.00000000000000E+00   0.00000000000000E+00  -4.51018914339013E-14
     -3.50148135103130E-16  -4.54520395690044E-14  -2.45353714153010E-15   0.00000000000000E+00   0.00000000000000E+00
      0.00000000000000E+00   0.00000000000000E+00  -1.11827354878084E-04  -7.08276993490901E-24  -1.11827354878084E-04
      5.26992192825814E-16   6.52333333333333E-01   6.52333333333333E-01   0.00000000000000E+00   0.00000000000000E+00
      1.11827354923536E-04   1.46981964667879E-20   1.11827354923536E-04   9.75416720082334E-16   3.00000000000000E+00
      3.00000000000000E+00   0.00000000000000E+00   0.00000000000000E+00   0.00000000000000E+00   0.00000000000000E+00
      0.00000000000000E+00   9.51128228621946E-16
      2.42444444444444E-01
      0.00000000000000E+00   0.00000000000000E+00   0.00000000000000E+00   0.00000000000000E+00  -2.98722278135144E-14
     -3.87956383552043E-16  -3.02601841970664E-14  -2.49058504805485E-15   0.00000000000000E+00   0.00000000000000E+00
      0.00000000000000E+00   0.00000000000000E+00  -1.16347050711898E-04  -7.36930351871571E-24  -1.16347050711898E-04
      5.26552723040890E-16   7.27333333333333E-01   7.27333333333333E-01   0.00000000000000E+00   0.00000000000000E+00
      1.16347050742158E-04   1.47031357172688E-20   1.16347050742158E-04   1.02456139703402E-15   3.00000000000000E+00
      3.00000000000000E+00   0.00000000000000E+00   0.00000000000000E+00   0.00000000000000E+00   0.00000000000000E+00
      0.00000000000000E+00   9.39470927979937E-16
      2.67444444444444E-01
      0.00000000000000E+00   0.00000000000000E+00   0.00000000000000E+00   0.00000000000000E+00   3.47703276770032E-15
     -4.11012301970960E-16   3.06602046572936E-15  -2.52715530889188E-15   0.00000000000000E+00   0.00000000000000E+00
      0.00000000000000E+00   0.00000000000000E+00  -1.20728390133364E-04  -7.64709140030601E-24  -1.20728390133364E-04
      5.26106731251639E-16   8.02333333333333E-01   8.02333333333333E-01   0.00000000000000E+00   0.00000000000000E+00
      1.20728390130298E-04   1.47081856473498E-20   1.20728390130298E-04   1.07310135859416E-15   3.00000000000000E+00
      3.00000000000000E+00   0.00000000000000E+00   0.00000000000000E+00   0.00000000000000E+00   0.00000000000000E+00
      0.00000000000000E+00   9.27947219046079E-16
      2.92444444444444E-01
      0.00000000000000E+00   0.00000000000000E+00   0.00000000000000E+00   0.00000000000000E+00   1.32363351425680E-16
     -4.28763529672992E-16  -2.96400178247313E-16  -2.56308041365772E-15   0.00000000000000E+00   0.00000000000000E+00
      0.00000000000000E+00   0.00000000000000E+00  -1.25025606111318E-04  -7.91993373587111E-24  -1.25025606111318E-04
      5.25650665661808E-16   8.77333333333333E-01   8.77333333333334E-01   0.00000000000000E+00   0.00000000000000E+00
      1.25025606111615E-04   1.47131905841034E-20   1.25025606111615E-04   1.12094658956743E-15   3.00000000000000E+00
      3.00000000000000E+00   0.00000000000000E+00   0.00000000000000E+00   0.00000000000000E+00   0.00000000000000E+00
      0.00000000000000E+00   9.16483158428494E-16
      3.17444444444444E-01
      0.00000000000000E+00   0.00000000000000E+00   0.00000000000000E+00   0.00000000000000E+00   2.61428920080244E-16
     -4.43676494928794E-16  -1.82247574848551E-16  -2.59842552651844E-15   0.00000000000000E+00   0.00000000000000E+00
      0.00000000000000E+00   0.00000000000000E+00  -1.29266559024309E-04  -8.18915175640404E-24  -1.29266559024309E-04
      5.25182739345904E-16   9.52333333333333E-01   9.52333333333333E-01   0.00000000000000E+00   0.00000000000000E+00
      1.29266559024491E-04   1.47180917741434E-20   1.29266559024491E-04   1.16820022571081E-15   3.00000000000000E+00
      3.00000000000000E+00   0.00000000000000E+00   0.00000000000000E+00   0.00000000000000E+00   0.00000000000000E+00
      0.00000000000000E+00   9.05042561461724E-16
      3.42444444444444E-01
      0.00000000000000E+00   0.00000000000000E+00   0.00000000000000E+00   0.00000000000000E+00   1.00383199909074E-15
     -4.54957845268375E-16   5.48874153822361E-16  -2.63336712747956E-15   0.00000000000000E+00   0.00000000000000E+00
      0.00000000000000E+00   0.00000000000000E+00  -1.33460602366126E-04  -8.45497909137965E-24  -1.33460602366126E-04
      5.24702603210276E-16   1.02733333333333E+00   1.02733333333333E+00   0.00000000000000E+00   0.00000000000000E+00
      1.33460602365577E-04   1.47228670010403E-20   1.33460602365577E-04   1.21504620243295E-15   3.00000000000000E+00
      3.00000000000000E+00   0.00000000000000E+00   0.00000000000000E+00   0.00000000000000E+00   0.00000000000000E+00
      0.00000000000000E+00   8.93618321836332E-16
      3.67444444444445E-01
      0.00000000000000E+00   0.00000000000000E+00   0.00000000000000E+00   0.00000000000000E+00   3.73866864091954E-15
     -4.63571245527433E-16   3.27509739539211E-15  -2.66807678641364E-15   0.00000000000000E+00   0.00000000000000E+00
      0.00000000000000E+00   0.00000000000000E+00  -1.37610812030381E-04  -8.71806592857483E-24  -1.37610812030381E-04
      5.24210417058212E-16   1.10233333333333E+00   1.10233333333333E+00   0.00000000000000E+00   0.00000000000000E+00
      1.37610812027105E-04   1.47275361208979E-20   1.37610812027106E-04   1.26165305772186E-15   3.00000000000000E+00
      3.00000000000000E+00   0.00000000000000E+00   0.00000000000000E+00   0.00000000000000E+00   0.00000000000000E+00
      0.00000000000000E+00   8.82213311633573E-16
      3.92444444444445E-01
      0.00000000000000E+00   0.00000000000000E+00   0.00000000000000E+00   0.00000000000000E+00   4.57574204158087E-15
     -4.70687590216036E-16   4.10505445136484E-15  -2.70269077317392E-15   0.00000000000000E+00   0.00000000000000E+00
      0.00000000000000E+00   0.00000000000000E+00  -1.41718867069902E-04  -8.97874732549529E-24  -1.41718867069902E-04
      5.23706411076400E-16   1.17733333333333E+00   1.17733333333333E+00   0.00000000000000E+00   0.00000000000000E+00
      1.41718867065796E-04   1.47321458557405E-20   1.41718867065796E-04   1.30815157924862E-15   3.00000000000000E+00
      3.00000000000000E+00   0.00000000000000E+00   0.00000000000000E+00   0.00000000000000E+00   0.00000000000000E+00
      0.00000000000000E+00   8.70832782848897E-16
      4.17444444444445E-01
      0.00000000000000E+00   0.00000000000000E+00   0.00000000000000E+00   0.00000000000000E+00   1.07486460371219E-15
     -4.77330510188835E-16   5.97534093523355E-16  -2.73728594299802E-15   0.00000000000000E+00   0.00000000000000E+00
      0.00000000000000E+00   0.00000000000000E+00  -1.45786809698427E-04  -9.23738702436966E-24  -1.45786809698427E-04
      5.23190693555891E-16   1.25233333333333E+00   1.25233333333333E+00   0.00000000000000E+00   0.00000000000000E+00
      1.45786809697829E-04   1.47367558585568E-20   1.45786809697829E-04   1.35461516480034E-15   3.00000000000000E+00
      3.00000000000000E+00   0.00000000000000E+00   0.00000000000000E+00   0.00000000000000E+00   0.00000000000000E+00
      0.00000000000000E+00   8.59480084641788E-16
      4.42444444444445E-01
      0.00000000000000E+00   0.00000000000000E+00   0.00000000000000E+00   0.00000000000000E+00   1.13983180640495E-16
     -4.84385440799902E-16  -3.70402260159407E-16  -2.77185213319073E-15   0.00000000000000E+00   0.00000000000000E+00
      0.00000000000000E+00   0.00000000000000E+00  -1.49817530753795E-04  -9.49287904453754E-24  -1.49817530753795E-04
      5.22663187566279E-16   1.32733333333333E+00   1.32733333333333E+00   0.00000000000000E+00   0.00000000000000E+00
      1.49817530754166E-04   1.47413981881577E-20   1.49817530754166E-04   1.40103528240179E-15   3.00000000000000E+00
      3.00000000000000E+00   0.00000000000000E+00   0.00000000000000E+00   0.00000000000000E+00   0.00000000000000E+00
      0.00000000000000E+00   8.48153663222668E-16
      4.67444444444445E-01
      0.00000000000000E+00   0.00000000000000E+00   0.00000000000000E+00   0.00000000000000E+00  -1.49788854591550E-18
     -4.91697308782591E-16  -4.93195197328506E-16  -2.80631766997612E-15   0.00000000000000E+00   0.00000000000000E+00
      0.00000000000000E+00   0.00000000000000E+00  -1.53814774475808E-04  -9.74725792745469E-24  -1.53814774475808E-04
      5.22123635919921E-16   1.40233333333333E+00   1.40233333333333E+00   0.00000000000000E+00   0.00000000000000E+00
      1.53814774476301E-04   1.47460743781377E-20   1.53814774476301E-04   1.44734655724503E-15   3.00000000000000E+00
      3.00000000000000E+00   0.00000000000000E+00   0.00000000000000E+00   0.00000000000000E+00   0.00000000000000E+00
      0.00000000000000E+00   8.36847476811172E-16
      4.92444444444445E-01
      0.00000000000000E+00   0.00000000000000E+00   0.00000000000000E+00   0.00000000000000E+00   2.03604573188239E-18
     -4.98031873045852E-16  -4.95995827313970E-16  -2.84061485187911E-15   0.00000000000000E+00   0.00000000000000E+00
      0.00000000000000E+00   0.00000000000000E+00  -1.57782155035231E-04  -9.99893930279069E-24  -1.57782155035231E-04
      5.21571732182872E-16   1.47733333333333E+00   1.47733333333333E+00   0.00000000000000E+00   0.00000000000000E+00
      1.57782155035727E-04   1.47506834882543E-20   1.57782155035727E-04   1.49348753000014E-15   3.00000000000000E+00
      3.00000000000000E+00   0.00000000000000E+00   0.00000000000000E+00   0.00000000000000E+00   0.00000000000000E+00
      0.00000000000000E+00   8.25555589696099E-16
      5.17444444444445E-01
      0.00000000000000E+00   0.00000000000000E+00   0.00000000000000E+00   0.00000000000000E+00   1.36137787327164E-18
     -5.03411358905635E-16  -5.02049981032363E-16  -2.87470069694511E-15   0.00000000000000E+00   0.00000000000000E+00
      0.00000000000000E+00   0.00000000000000E+00  -1.61722554906172E-04  -1.02498372960590E-23  -1.61722554906172E-04
      5.21007230792679E-16   1.55233333333333E+00   1.55233333333333E+00   0.00000000000000E+00   0.00000000000000E+00
      1.61722554906674E-04   1.47552139510246E-20   1.61722554906674E-04   1.53941956878493E-15   3.00000000000000E+00
      3.00000000000000E+00   0.00000000000000E+00   0.00000000000000E+00   0.00000000000000E+00   0.00000000000000E+00
      0.00000000000000E+00   8.14273897367507E-16
      5.42444444444445E-01
      0.00000000000000E+00   0.00000000000000E+00   0.00000000000000E+00   0.00000000000000E+00   1.14679888909925E-19
     -5.09653443612864E-16  -5.09538763723954E-16  -2.90855106189114E-15   0.00000000000000E+00   0.00000000000000E+00
      0.00000000000000E+00   0.00000000000000E+00  -1.65637914052358E-04  -1.04980062642608E-23  -1.65637914052358E-04
      5.20430012764198E-16   1.62733333333333E+00   1.62733333333333E+00   0.00000000000000E+00   0.00000000000000E+00
      1.65637914052867E-04   1.47596616066135E-20   1.65637914052867E-04   1.58512112141705E-15   3.00000000000000E+00
      3.00000000000000E+00   0.00000000000000E+00   0.00000000000000E+00   0.00000000000000E+00   0.00000000000000E+00
      0.00000000000000E+00   8.02999927709894E-16
      5.67444444444445E-01
      0.00000000000000E+00   0.00000000000000E+00   0.00000000000000E+00   0.00000000000000E+00   1.57904191171628E-18
     -5.19251054135577E-16  -5.17672012223860E-16  -2.94215478908825E-15   0.00000000000000E+00   0.00000000000000E+00
      0.00000000000000E+00   0.00000000000000E+00  -1.69529120483594E-04  -1.07453481433770E-23  -1.69529120483594E-04
      5.19840123276932E-16   1.70233333333333E+00   1.70233333333333E+00   0.00000000000000E+00   0.00000000000000E+00
      1.69529120484111E-04   1.47640403096748E-20   1.69529120484111E-04   1.63058196276905E-15   3.00000000000000E+00
      3.00000000000000E+00   0.00000000000000E+00   0.00000000000000E+00   0.00000000000000E+00   0.00000000000000E+00
      0.00000000000000E+00   7.91732703042268E-16
      5.92444444444445E-01
      0.00000000000000E+00   0.00000000000000E+00   0.00000000000000E+00   0.00000000000000E+00  -5.43529467034688E-18
     -5.35257510715490E-16  -5.40692805385837E-16  -2.97550477956006E-15   0.00000000000000E+00   0.00000000000000E+00
      0.00000000000000E+00   0.00000000000000E+00  -1.73396295426751E-04  -1.09904880860298E-23  -1.73396295426751E-04
      5.19237741409694E-16   1.77733333333333E+00   1.77733333333333E+00   0.00000000000000E+00   0.00000000000000E+00
      1.73396295427291E-04   1.47683569682559E-20   1.73396295427291E-04   1.67579496732207E-15   3.00000000000000E+00
      3.00000000000000E+00   0.00000000000000E+00   0.00000000000000E+00   0.00000000000000E+00   0.00000000000000E+00
      0.00000000000000E+00   7.80472070828280E-16
      6.17444444444445E-01
      0.00000000000000E+00   0.00000000000000E+00   0.00000000000000E+00   0.00000000000000E+00  -4.69293818118329E-18
     -5.60127515440150E-16  -5.64820453621333E-16  -3.00859985666515E-15   0.00000000000000E+00   0.00000000000000E+00
      0.00000000000000E+00   0.00000000000000E+00  -1.77238723191462E-04  -1.12349326475436E-23  -1.77238723191462E-04
      5.18623174542379E-16   1.85233333333333E+00   1.85233333333333E+00   0.00000000000000E+00   0.00000000000000E+00
      1.77238723192027E-04   1.47726061531938E-20   1.77238723192027E-04   1.72075745342251E-15   3.00000000000000E+00
      3.00000000000000E+00   0.00000000000000E+00   0.00000000000000E+00   0.00000000000000E+00   0.00000000000000E+00
      0.00000000000000E+00   7.69219228700260E-16
      6.42444444444445E-01
      0.00000000000000E+00   0.00000000000000E+00   0.00000000000000E+00   0.00000000000000E+00  -3.47986239074352E-18
     -5.91571808156879E-16  -5.95051670547622E-16  -3.04142451980990E-15   0.00000000000000E+00   0.00000000000000E+00
      0.00000000000000E+00   0.00000000000000E+00  -1.81055993142582E-04  -1.14771253168194E-23  -1.81055993142582E-04
      5.17996694993652E-16   1.92733333333333E+00   1.92733333333333E+00   0.00000000000000E+00   0.00000000000000E+00
      1.81055993143177E-04   1.47767826976034E-20   1.81055993143177E-04   1.76545325985614E-15   3.00000000000000E+00
      3.00000000000000E+00   0.00000000000000E+00   0.00000000000000E+00   0.00000000000000E+00   0.00000000000000E+00
      0.00000000000000E+00   7.57974564960104E-16
      6.67444444444445E-01
      0.00000000000000E+00   0.00000000000000E+00   0.00000000000000E+00   0.00000000000000E+00  -1.94958195615129E-18
     -6.21838026200319E-16  -6.23787608156470E-16  -3.07396471565338E-15   0.00000000000000E+00   0.00000000000000E+00
      0.00000000000000E+00   0.00000000000000E+00  -1.84847673146505E-04  -1.17185953265940E-23  -1.84847673146505E-04
      5.17358555373013E-16   2.00233333333333E+00   2.00233333333333E+00   0.00000000000000E+00   0.00000000000000E+00
      1.84847673147129E-04   1.47808859484620E-20   1.84847673147129E-04   1.80986801439763E-15   3.00000000000000E+00
      3.00000000000000E+00   0.00000000000000E+00   0.00000000000000E+00   0.00000000000000E+00   0.00000000000000E+00
      0.00000000000000E+00   7.46738145882737E-16
      6.92444444444445E-01
      0.00000000000000E+00   0.00000000000000E+00   0.00000000000000E+00   0.00000000000000E+00  -7.41771180915702E-18
     -6.45042633400276E-16  -6.52460345209433E-16  -3.10620171619413E-15   0.00000000000000E+00   0.00000000000000E+00
      0.00000000000000E+00   0.00000000000000E+00  -1.88613239624693E-04  -1.19576900132974E-23  -1.88613239624693E-04
      5.16708988880924E-16   2.07733333333333E+00   2.07733333333333E+00   0.00000000000000E+00   0.00000000000000E+00
      1.88613239625345E-04   1.47849218009730E-20   1.88613239625345E-04   1.85398183004194E-15   3.00000000000000E+00
      3.00000000000000E+00   0.00000000000000E+00   0.00000000000000E+00   0.00000000000000E+00   0.00000000000000E+00
      0.00000000000000E+00   7.35510897271269E-16
      7.17444444444445E-01
      0.00000000000000E+00   0.00000000000000E+00   0.00000000000000E+00   0.00000000000000E+00   1.48113548570082E-13
     -6.60706680164040E-16   1.47452841889918E-13  -3.13811009381260E-15   0.00000000000000E+00   0.00000000000000E+00
      0.00000000000000E+00   0.00000000000000E+00  -1.92352402035617E-04  -1.21959341258692E-23  -1.92352402035617E-04
      5.16048169790032E-16   2.15233333333333E+00   2.15233333333333E+00   0.00000000000000E+00   0.00000000000000E+00
      1.92352401888165E-04   1.47888530521078E-20   1.92352401888165E-04   1.89776831129575E-15   3.00000000000000E+00
      3.00000000000000E+00   0.00000000000000E+00   0.00000000000000E+00   0.00000000000000E+00   0.00000000000000E+00
      0.00000000000000E+00   7.24293612726815E-16
      7.42444444444445E-01
      0.00000000000000E+00   0.00000000000000E+00   0.00000000000000E+00   0.00000000000000E+00   7.73949014611680E-14
     -6.71778510701102E-16   7.67231229504669E-14  -3.16965784590621E-15   0.00000000000000E+00   0.00000000000000E+00
      0.00000000000000E+00   0.00000000000000E+00  -1.96065102480247E-04  -1.24316767640951E-23  -1.96065102480247E-04
      5.15376225011521E-16   2.22733333333333E+00   2.22733333333333E+00   0.00000000000000E+00   0.00000000000000E+00
      1.96065102403524E-04   1.47926774848414E-20   1.96065102403524E-04   1.94119448323919E-15   3.00000000000000E+00
      3.00000000000000E+00   0.00000000000000E+00   0.00000000000000E+00   0.00000000000000E+00   0.00000000000000E+00
      0.00000000000000E+00   7.13087137655505E-16
      7.67444444444445E-01
      0.00000000000000E+00   0.00000000000000E+00   0.00000000000000E+00   0.00000000000000E+00   2.26919678739331E-18
     -6.81821533101433E-16  -6.79552336314039E-16  -3.20081064457506E-15   0.00000000000000E+00   0.00000000000000E+00
      0.00000000000000E+00   0.00000000000000E+00  -1.99751161035455E-04  -1.26662505806178E-23  -1.99751161035455E-04
      5.14693303207416E-16   2.30233333333333E+00   2.30233333333333E+00   0.00000000000000E+00   0.00000000000000E+00
      1.99751161036134E-04   1.47965949154566E-20   1.99751161036134E-04   1.98422433293761E-15   3.00000000000000E+00
      3.00000000000000E+00   0.00000000000000E+00   0.00000000000000E+00   0.00000000000000E+00   0.00000000000000E+00
      0.00000000000000E+00   7.01893008430043E-16
      7.92444444444445E-01
      0.00000000000000E+00   0.00000000000000E+00   0.00000000000000E+00   0.00000000000000E+00   6.70696521474030E-18
     -6.92970126897220E-16  -6.86263161682480E-16  -3.23151842703517E-15   0.00000000000000E+00   0.00000000000000E+00
      0.00000000000000E+00   0.00000000000000E+00  -2.03411807327562E-04  -1.28991826341913E-23  -2.03411807327562E-04
      5.13999374778031E-16   2.37733333333333E+00   2.37733333333333E+00   0.00000000000000E+00   0.00000000000000E+00
      2.03411807328248E-04   1.48003704981225E-20   2.03411807328248E-04   2.02680889997379E-15   3.00000000000000E+00
      3.00000000000000E+00   0.00000000000000E+00   0.00000000000000E+00   0.00000000000000E+00   0.00000000000000E+00
      0.00000000000000E+00   6.90710152283351E-16
      8.17444444444445E-01
      0.00000000000000E+00   0.00000000000000E+00   0.00000000000000E+00   0.00000000000000E+00   5.34170261522605E-18
     -7.05093787979742E-16  -6.99752085364516E-16  -3.26174307530494E-15   0.00000000000000E+00   0.00000000000000E+00
      0.00000000000000E+00   0.00000000000000E+00  -2.07048324080240E-04  -1.31305988540800E-23  -2.07048324080240E-04
      5.13294435792292E-16   2.45233333333333E+00   2.45233333333333E+00   0.00000000000000E+00   0.00000000000000E+00
      2.07048324080939E-04   1.48040255778582E-20   2.07048324080939E-04   2.06891062085606E-15   3.00000000000000E+00
      3.00000000000000E+00   0.00000000000000E+00   0.00000000000000E+00   0.00000000000000E+00   0.00000000000000E+00
      0.00000000000000E+00   6.79538018656584E-16
      8.42444444444445E-01
      0.00000000000000E+00   0.00000000000000E+00   0.00000000000000E+00   0.00000000000000E+00   9.02118826278170E-18
     -7.16518942731522E-16  -7.07497754468740E-16  -3.29147082546814E-15   0.00000000000000E+00   0.00000000000000E+00
      0.00000000000000E+00   0.00000000000000E+00  -2.10662416353631E-04  -1.33611007596394E-23  -2.10662416353631E-04
      5.12578465957290E-16   2.52733333333333E+00   2.52733333333333E+00   0.00000000000000E+00   0.00000000000000E+00
      2.10662416354338E-04   1.48074569705920E-20   2.10662416354338E-04   2.11051683739375E-15   3.00000000000000E+00
      3.00000000000000E+00   0.00000000000000E+00   0.00000000000000E+00   0.00000000000000E+00   0.00000000000000E+00
      0.00000000000000E+00   6.68375522117108E-16
      8.67444444444445E-01
      0.00000000000000E+00   0.00000000000000E+00   0.00000000000000E+00   0.00000000000000E+00  -1.37799166843828E-18