DF-ISE text

Info {
  version   = 1.0
  type      = xyplot
  datasets  = [
    "time"
    "substrate OuterVoltage" "substrate InnerVoltage" "substrate QuasiFermiPotential" "substrate DisplacementCurrent" "substrate eCurrent"
    "substrate hCurrent" "substrate TotalCurrent" "substrate Charge" "source OuterVoltage" "source InnerVoltage"
    "source QuasiFermiPotential" "source DisplacementCurrent" "source eCurrent" "source hCurrent" "source TotalCurrent"
    "source Charge" "drain OuterVoltage" "drain InnerVoltage" "drain QuasiFermiPotential" "drain DisplacementCurrent"
    "drain eCurrent" "drain hCurrent" "drain TotalCurrent" "drain Charge" "gate OuterVoltage"
    "gate InnerVoltage" "gate QuasiFermiPotential" "gate DisplacementCurrent" "gate eCurrent" "gate hCurrent"
    "gate TotalCurrent" "gate Charge" ]
  functions = [
    Time
    OuterVoltage InnerVoltage QuasiFermiPotential DisplacementCurrent eCurrent
    hCurrent TotalCurrent Charge OuterVoltage InnerVoltage
    QuasiFermiPotential DisplacementCurrent eCurrent hCurrent TotalCurrent
    Charge OuterVoltage InnerVoltage QuasiFermiPotential DisplacementCurrent
    eCurrent hCurrent TotalCurrent Charge OuterVoltage
    InnerVoltage QuasiFermiPotential DisplacementCurrent eCurrent hCurrent
    TotalCurrent Charge ]
}

Data {
      0.00000000000000E+00
      0.00000000000000E+00   0.00000000000000E+00   0.00000000000000E+00   0.00000000000000E+00  -9.30469276602526E-20
     -2.15684575620947E-27  -9.30469298170984E-20  -4.56390200813916E-15   0.00000000000000E+00   0.00000000000000E+00
      0.00000000000000E+00   0.00000000000000E+00   5.44594145803877E-20   1.58003607620973E-27   5.44594161604237E-20
      1.73540912959343E-15   0.00000000000000E+00   0.00000000000000E+00   0.00000000000000E+00   0.00000000000000E+00
      3.85875130800019E-20   5.76672667884868E-28   3.85875136566746E-20   1.73540912959343E-15   1.00000000000000E+00
      1.00000000000000E+00   0.00000000000000E+00   0.00000000000000E+00   0.00000000000000E+00   0.00000000000000E+00
      0.00000000000000E+00   1.09308374895229E-15
      1.00000000000000E-02
      0.00000000000000E+00   0.00000000000000E+00   0.00000000000000E+00   0.00000000000000E+00   8.09877734826263E-17
     -3.80960398234779E-17   4.28917336591484E-17  -4.60472658496448E-15   0.00000000000000E+00   0.00000000000000E+00
      0.00000000000000E+00   0.00000000000000E+00  -5.92510075899103E-17  -2.12691263143323E-27  -5.92510075920372E-17
      1.73540912959338E-15   3.00000000000000E-02   3.00000000000000E-02   0.00000000000000E+00   0.00000000000000E+00
      1.63324872690804E-17   2.67866638083956E-20   1.63592739328888E-17   1.77908400199074E-15   1.00000000000000E+00
      1.00000000000000E+00   0.00000000000000E+00   0.00000000000000E+00   0.00000000000000E+00   0.00000000000000E+00
      0.00000000000000E+00   1.09023345338036E-15
      2.33333333333333E-02
      0.00000000000000E+00   0.00000000000000E+00   0.00000000000000E+00   0.00000000000000E+00  -1.09077855531024E-19
     -7.36985060186962E-17  -7.38075838742273E-17  -4.65902428353370E-15   0.00000000000000E+00   0.00000000000000E+00
      0.00000000000000E+00   0.00000000000000E+00  -7.81459909430540E-17   2.67447874205182E-28  -7.81459909427866E-17
      1.73540912959333E-15   7.00000000000000E-02   7.00000000000000E-02   0.00000000000000E+00   0.00000000000000E+00
      1.51918193243055E-16   3.53815739588882E-20   1.51953574817013E-16   1.83711224123671E-15   1.00000000000000E+00
      1.00000000000000E+00   0.00000000000000E+00   0.00000000000000E+00   0.00000000000000E+00   0.00000000000000E+00
      0.00000000000000E+00   1.08650291270366E-15
      4.24444444444445E-02
      0.00000000000000E+00   0.00000000000000E+00   0.00000000000000E+00   0.00000000000000E+00  -1.74676481368218E-19
     -1.15824045534472E-16  -1.15998722015840E-16  -4.73651665588194E-15   0.00000000000000E+00   0.00000000000000E+00
      0.00000000000000E+00   0.00000000000000E+00  -8.09733171980980E-17   1.08101927248950E-27  -8.09733171970169E-17
      1.73540912959325E-15   1.27333333333333E-01   1.27333333333333E-01   0.00000000000000E+00   0.00000000000000E+00
      1.96936140888086E-16   3.58983247709900E-20   1.96972039212857E-16   1.91985273869833E-15   1.00000000000000E+00
      1.00000000000000E+00   0.00000000000000E+00   0.00000000000000E+00   0.00000000000000E+00   0.00000000000000E+00
      0.00000000000000E+00   1.08125478759034E-15
      6.74444444444444E-02
      0.00000000000000E+00   0.00000000000000E+00   0.00000000000000E+00   0.00000000000000E+00  -4.71010060807137E-20
     -1.77169666909834E-16  -1.77216767915915E-16  -4.83710149128614E-15   0.00000000000000E+00   0.00000000000000E+00
      0.00000000000000E+00   0.00000000000000E+00  -8.12144123983585E-17  -1.60081402674500E-28  -8.12144123985186E-17
      1.73540912959315E-15   2.02333333333333E-01   2.02333333333333E-01   0.00000000000000E+00   0.00000000000000E+00
      2.58409679592116E-16   2.15007223176703E-20   2.58431180314433E-16   2.02719575534299E-15   1.00000000000000E+00
      1.00000000000000E+00   0.00000000000000E+00   0.00000000000000E+00   0.00000000000000E+00   0.00000000000000E+00
      0.00000000000000E+00   1.07449660634999E-15
      9.24444444444444E-02
      0.00000000000000E+00   0.00000000000000E+00   0.00000000000000E+00   0.00000000000000E+00  -8.71925273398102E-20
     -2.60610246798554E-16  -2.60697439325894E-16  -4.93656261959963E-15   0.00000000000000E+00   0.00000000000000E+00
      0.00000000000000E+00   0.00000000000000E+00  -8.14411305329582E-17   6.13531487787006E-27  -8.14411305268229E-17
      1.73540912959304E-15   2.77333333333333E-01   2.77333333333333E-01   0.00000000000000E+00   0.00000000000000E+00
      3.42086394488769E-16   5.21753639482307E-20   3.42138569852717E-16   2.13333861192022E-15   1.00000000000000E+00
      1.00000000000000E+00   0.00000000000000E+00   0.00000000000000E+00   0.00000000000000E+00   0.00000000000000E+00
      0.00000000000000E+00   1.06781487808638E-15
      1.17444444444444E-01
      0.00000000000000E+00   0.00000000000000E+00   0.00000000000000E+00   0.00000000000000E+00  -8.03113232743714E-20
     -3.73587814536665E-16  -3.73668125859939E-16  -5.03468671007057E-15   0.00000000000000E+00   0.00000000000000E+00
      0.00000000000000E+00   0.00000000000000E+00  -8.16667426677155E-17  -2.39037339309309E-27  -8.16667426701059E-17
      1.73540912959291E-15   3.52333333333333E-01   3.52333333333333E-01   0.00000000000000E+00   0.00000000000000E+00
      4.55287025807697E-16   4.78427223478384E-20   4.55334868530045E-16   2.23807826114540E-15   1.00000000000000E+00
      1.00000000000000E+00   0.00000000000000E+00   0.00000000000000E+00   0.00000000000000E+00   0.00000000000000E+00
      0.00000000000000E+00   1.06119931933226E-15
      1.42444444444444E-01
      0.00000000000000E+00   0.00000000000000E+00   0.00000000000000E+00   0.00000000000000E+00  -3.40375607160727E-20
     -5.23355082026720E-16  -5.23389119587436E-16  -5.13126977848075E-15   0.00000000000000E+00   0.00000000000000E+00
      0.00000000000000E+00   0.00000000000000E+00  -8.17167899009021E-17   1.81669519636170E-27  -8.17167898990854E-17
      1.73540912959276E-15   4.27333333333333E-01   4.27333333333333E-01   0.00000000000000E+00   0.00000000000000E+00
      6.05235576181485E-16  -1.29666694963195E-19   6.05105909486522E-16   2.34120170142320E-15   1.00000000000000E+00
      1.00000000000000E+00   0.00000000000000E+00   0.00000000000000E+00   0.00000000000000E+00   0.00000000000000E+00
      0.00000000000000E+00   1.05465894746479E-15
      1.67444444444444E-01
      0.00000000000000E+00   0.00000000000000E+00   0.00000000000000E+00   0.00000000000000E+00  -5.22744072569510E-20
     -7.16566946561499E-16  -7.16619220968756E-16  -5.22606139540009E-15   0.00000000000000E+00   0.00000000000000E+00
      0.00000000000000E+00   0.00000000000000E+00  -8.21453489034964E-17   1.55041886561606E-27  -8.21453489019460E-17
      1.73540912959259E-15   5.02333333333333E-01   5.02333333333333E-01   0.00000000000000E+00   0.00000000000000E+00
      7.98723348683099E-16   4.12211876027451E-20   7.98764569870702E-16   2.44244231097671E-15   1.00000000000000E+00
      1.00000000000000E+00   0.00000000000000E+00   0.00000000000000E+00   0.00000000000000E+00   0.00000000000000E+00
      0.00000000000000E+00   1.04820995483078E-15
      1.92444444444444E-01
      0.00000000000000E+00   0.00000000000000E+00   0.00000000000000E+00   0.00000000000000E+00  -1.10166976764518E-19
     -9.48007923691524E-16  -9.48118090668289E-16  -5.31870772552879E-15   0.00000000000000E+00   0.00000000000000E+00
      0.00000000000000E+00   0.00000000000000E+00  -8.23107034945436E-17   2.38215991399499E-27  -8.23107034921614E-17
      1.73540912959241E-15   5.77333333333333E-01   5.77333333333333E-01   0.00000000000000E+00   0.00000000000000E+00
      1.03038803814526E-15   4.07560151862392E-20   1.03042879416045E-15   2.54143265753331E-15   1.00000000000000E+00
      1.00000000000000E+00   0.00000000000000E+00   0.00000000000000E+00   0.00000000000000E+00   0.00000000000000E+00
      0.00000000000000E+00   1.04186593840306E-15
      2.17444444444444E-01
      0.00000000000000E+00   0.00000000000000E+00   0.00000000000000E+00   0.00000000000000E+00  -8.01543934040637E-20
     -1.16162745241647E-15  -1.16170760680988E-15  -5.40874986605746E-15   0.00000000000000E+00   0.00000000000000E+00
      0.00000000000000E+00   0.00000000000000E+00  -8.25498243102014E-17  -1.25666172145098E-27  -8.25498243114581E-17
      1.73540912959223E-15   6.52333333333333E-01   6.52333333333333E-01   0.00000000000000E+00   0.00000000000000E+00
      1.24418482467670E-15   7.26064446351088E-20   1.24425743112134E-15   2.63771458508089E-15   1.00000000000000E+00
      1.00000000000000E+00   0.00000000000000E+00   0.00000000000000E+00   0.00000000000000E+00   0.00000000000000E+00
      0.00000000000000E+00   1.03562615138433E-15
      2.42444444444444E-01
      0.00000000000000E+00   0.00000000000000E+00   0.00000000000000E+00   0.00000000000000E+00  -6.37400539896811E-20
     -1.29524620104974E-15  -1.29530994110373E-15  -5.49573931793175E-15   0.00000000000000E+00   0.00000000000000E+00
      0.00000000000000E+00   0.00000000000000E+00  -8.27668311577656E-17   2.31174240813927E-27  -8.27668311554538E-17
      1.73540912959209E-15   7.27333333333333E-01   7.27333333333333E-01   0.00000000000000E+00   0.00000000000000E+00
      1.37801022833057E-15   6.65439286109929E-20   1.37807677225918E-15   2.73086085477720E-15   1.00000000000000E+00
      1.00000000000000E+00   0.00000000000000E+00   0.00000000000000E+00   0.00000000000000E+00   0.00000000000000E+00
      0.00000000000000E+00   1.02946933356245E-15
      2.67444444444444E-01
      0.00000000000000E+00   0.00000000000000E+00   0.00000000000000E+00   0.00000000000000E+00  -1.86162756480980E-20
     -1.36615623704443E-15  -1.36617485332008E-15  -5.57950023254824E-15   0.00000000000000E+00   0.00000000000000E+00
      0.00000000000000E+00   0.00000000000000E+00  -8.30095666909876E-17  -2.05192930405981E-27  -8.30095666930395E-17
      1.73540912959198E-15   8.02333333333333E-01   8.02333333333333E-01   0.00000000000000E+00   0.00000000000000E+00
      1.44965731870930E-15  -4.72898696173518E-19   1.44918442001312E-15   2.82072820962244E-15   1.00000000000000E+00
      1.00000000000000E+00   0.00000000000000E+00   0.00000000000000E+00   0.00000000000000E+00   0.00000000000000E+00
      0.00000000000000E+00   1.02336289333381E-15
      2.92444444444444E-01
      0.00000000000000E+00   0.00000000000000E+00   0.00000000000000E+00   0.00000000000000E+00  -8.89911453339229E-20
     -1.40987169810370E-15  -1.40996068924904E-15  -5.66037495675705E-15   0.00000000000000E+00   0.00000000000000E+00
      0.00000000000000E+00   0.00000000000000E+00  -8.31171626859470E-17  -3.86662594739385E-28  -8.31171626863336E-17
      1.73540912959188E-15   8.77333333333333E-01   8.77333333333333E-01   0.00000000000000E+00   0.00000000000000E+00
      1.49300247824678E-15   7.53736885930922E-20   1.49307785193537E-15   2.90768758579787E-15   1.00000000000000E+00
      1.00000000000000E+00   0.00000000000000E+00   0.00000000000000E+00   0.00000000000000E+00   0.00000000000000E+00
      0.00000000000000E+00   1.01727824136730E-15
      3.17444444444444E-01
      0.00000000000000E+00   0.00000000000000E+00   0.00000000000000E+00   0.00000000000000E+00  -5.83551013884203E-20
     -1.43612476902218E-15  -1.43618312412357E-15  -5.73911907978586E-15   0.00000000000000E+00   0.00000000000000E+00
      0.00000000000000E+00   0.00000000000000E+00  -8.33547918290933E-17   8.76187118752802E-28  -8.33547918282171E-17
      1.73540912959179E-15   9.52333333333333E-01   9.52333333333333E-01   0.00000000000000E+00   0.00000000000000E+00
      1.51947469330442E-15   6.32226473622258E-20   1.51953791595179E-15   2.99251265941556E-15   1.00000000000000E+00
      1.00000000000000E+00   0.00000000000000E+00   0.00000000000000E+00   0.00000000000000E+00   0.00000000000000E+00
      0.00000000000000E+00   1.01119729077851E-15
      3.42444444444444E-01
      0.00000000000000E+00   0.00000000000000E+00   0.00000000000000E+00   0.00000000000000E+00  -1.93006158724126E-20
     -1.45127161928056E-15  -1.45129091989643E-15  -5.81650541977604E-15   0.00000000000000E+00   0.00000000000000E+00
      0.00000000000000E+00   0.00000000000000E+00  -8.34911513347709E-17   3.69291075059028E-27  -8.34911513310780E-17
      1.73540912959169E-15   1.02733333333333E+00   1.02733333333333E+00   0.00000000000000E+00   0.00000000000000E+00
      1.53506598862325E-15  -2.83917395744627E-19   1.53478207122751E-15   3.07598567351507E-15   1.00000000000000E+00
      1.00000000000000E+00   0.00000000000000E+00   0.00000000000000E+00   0.00000000000000E+00   0.00000000000000E+00
      0.00000000000000E+00   1.00511061666927E-15
      3.67444444444445E-01
      0.00000000000000E+00   0.00000000000000E+00   0.00000000000000E+00   0.00000000000000E+00  -4.85499578035616E-20
     -1.46198903458461E-15  -1.46203758454241E-15  -5.89306976778316E-15   0.00000000000000E+00   0.00000000000000E+00
      0.00000000000000E+00   0.00000000000000E+00  -8.37139433503672E-17   2.66951243452561E-27  -8.37139433476977E-17
      1.73540912959161E-15   1.10233333333333E+00   1.10233333333333E+00   0.00000000000000E+00   0.00000000000000E+00
      1.54562352132018E-15   1.28006569933707E-19   1.54575152789011E-15   3.15864680407700E-15   1.00000000000000E+00
      1.00000000000000E+00   0.00000000000000E+00   0.00000000000000E+00   0.00000000000000E+00   0.00000000000000E+00
      0.00000000000000E+00   9.99013834114546E-16
      3.92444444444445E-01
      0.00000000000000E+00   0.00000000000000E+00   0.00000000000000E+00   0.00000000000000E+00  -7.50389371617376E-20
     -1.47102708686089E-15  -1.47110212579805E-15  -5.96910763415243E-15   0.00000000000000E+00   0.00000000000000E+00
      0.00000000000000E+00   0.00000000000000E+00  -8.39058850014810E-17   1.40496228123142E-27  -8.39058850000760E-17
      1.73540912959152E-15   1.17733333333333E+00   1.17733333333333E+00   0.00000000000000E+00   0.00000000000000E+00
      1.55495634603648E-15   5.16647616401395E-20   1.55500801079812E-15   3.24079345840232E-15   1.00000000000000E+00
      1.00000000000000E+00   0.00000000000000E+00   0.00000000000000E+00   0.00000000000000E+00   0.00000000000000E+00
      0.00000000000000E+00   9.92905046158579E-16
      4.17444444444445E-01
      0.00000000000000E+00   0.00000000000000E+00   0.00000000000000E+00   0.00000000000000E+00  -1.82782263381734E-20
     -1.48175784198319E-15  -1.48177612020952E-15  -6.04475704319333E-15   0.00000000000000E+00   0.00000000000000E+00
      0.00000000000000E+00   0.00000000000000E+00  -8.40926331981081E-17  -3.33544134525502E-27  -8.40926332014435E-17
      1.73540912959097E-15   1.25233333333333E+00   1.25233333333333E+00   0.00000000000000E+00   0.00000000000000E+00
      1.56582999437356E-15   3.87590374048211E-20   1.56586875341097E-15   3.32256444321371E-15   1.00000000000000E+00
      1.00000000000000E+00   0.00000000000000E+00   0.00000000000000E+00   0.00000000000000E+00   0.00000000000000E+00
      0.00000000000000E+00   9.86783470388637E-16
      4.42444444444445E-01
      0.00000000000000E+00   0.00000000000000E+00   0.00000000000000E+00   0.00000000000000E+00  -7.98876345735855E-20
     -1.49605902122454E-15  -1.49613890885912E-15  -6.12006793069601E-15   0.00000000000000E+00   0.00000000000000E+00
      0.00000000000000E+00   0.00000000000000E+00  -8.42587490760488E-17  -2.47266835056544E-27  -8.42587490785215E-17
      1.73540912959060E-15   1.32733333333333E+00   1.32733333333333E+00   0.00000000000000E+00   0.00000000000000E+00
      1.58035630401795E-15   4.13539196905272E-20   1.58039765793764E-15   3.40401001720159E-15   1.00000000000000E+00
      1.00000000000000E+00   0.00000000000000E+00   0.00000000000000E+00   0.00000000000000E+00   0.00000000000000E+00
      0.00000000000000E+00   9.80648783903805E-16
      4.67444444444445E-01
      0.00000000000000E+00   0.00000000000000E+00   0.00000000000000E+00   0.00000000000000E+00   9.05540940930763E-20
     -1.51498496008279E-15  -1.51489440598870E-15  -6.19504478248208E-15   0.00000000000000E+00   0.00000000000000E+00
      0.00000000000000E+00   0.00000000000000E+00  -8.44634657016773E-17   3.11762083958632E-27  -8.44634656985597E-17
      1.73540912959160E-15   1.40233333333333E+00   1.40233333333333E+00   0.00000000000000E+00   0.00000000000000E+00
      1.59931094508516E-15   4.69266020953159E-20   1.59935787168725E-15   3.48513480932647E-15   1.00000000000000E+00
      1.00000000000000E+00   0.00000000000000E+00   0.00000000000000E+00   0.00000000000000E+00   0.00000000000000E+00
      0.00000000000000E+00   9.74500843563994E-16
      4.92444444444445E-01
      0.00000000000000E+00   0.00000000000000E+00   0.00000000000000E+00   0.00000000000000E+00  -7.38423116736683E-20
     -1.53725213137755E-15  -1.53732597368923E-15  -6.26967178169364E-15   0.00000000000000E+00   0.00000000000000E+00
      0.00000000000000E+00   0.00000000000000E+00  -8.46420822189088E-17  -2.81698948321818E-27  -8.46420822217258E-17
      1.73540912959111E-15   1.47733333333333E+00   1.47733333333333E+00   0.00000000000000E+00   0.00000000000000E+00
      1.62295010954332E-15  -9.82053632364823E-19   1.62196805591095E-15   3.56592305433830E-15   1.00000000000000E+00
      1.00000000000000E+00   0.00000000000000E+00   0.00000000000000E+00   0.00000000000000E+00   0.00000000000000E+00
      0.00000000000000E+00   9.68339597764212E-16
      5.17444444444445E-01
      0.00000000000000E+00   0.00000000000000E+00   0.00000000000000E+00   0.00000000000000E+00  -6.69478764551178E-20
     -1.56361260503173E-15  -1.56367955290818E-15  -6.34392911437136E-15   0.00000000000000E+00   0.00000000000000E+00
      0.00000000000000E+00   0.00000000000000E+00  -8.48358916592493E-17   2.10541665719586E-27  -8.48358916571439E-17
      1.73540912959100E-15   1.55233333333333E+00   1.55233333333333E+00   0.00000000000000E+00   0.00000000000000E+00
      1.64843410988759E-15   8.13346777272193E-20   1.64851544456532E-15   3.64635489022752E-15   1.00000000000000E+00
      1.00000000000000E+00   0.00000000000000E+00   0.00000000000000E+00   0.00000000000000E+00   0.00000000000000E+00
      0.00000000000000E+00   9.62165094552856E-16
      5.42444444444445E-01
      0.00000000000000E+00   0.00000000000000E+00   0.00000000000000E+00   0.00000000000000E+00  -1.11620507688142E-19
     -1.59072867040309E-15  -1.59084029091078E-15  -6.41780389704274E-15   0.00000000000000E+00   0.00000000000000E+00
      0.00000000000000E+00   0.00000000000000E+00  -8.49723005995653E-17   4.47453322386660E-27  -8.49723005950908E-17
      1.73540912959088E-15   1.62733333333333E+00   1.62733333333333E+00   0.00000000000000E+00   0.00000000000000E+00
      1.67561748803995E-15   1.95103465916710E-19   1.67581259150587E-15   3.72641724407459E-15   1.00000000000000E+00
      1.00000000000000E+00   0.00000000000000E+00   0.00000000000000E+00   0.00000000000000E+00   0.00000000000000E+00
      0.00000000000000E+00   9.55977523377259E-16
      5.67444444444445E-01
      0.00000000000000E+00   0.00000000000000E+00   0.00000000000000E+00   0.00000000000000E+00  -9.49947094930017E-20
     -1.62699111696668E-15  -1.62708611167618E-15  -6.49129408403624E-15   0.00000000000000E+00   0.00000000000000E+00
      0.00000000000000E+00   0.00000000000000E+00  -8.51694596000061E-17  -4.16715674290075E-27  -8.51694596041732E-17
      1.73540912959076E-15   1.70233333333333E+00   1.70233333333333E+00   0.00000000000000E+00   0.00000000000000E+00
      1.71220290493447E-15   5.26663458827563E-20   1.71225557128035E-15   3.80610771488963E-15   1.00000000000000E+00
      1.00000000000000E+00   0.00000000000000E+00   0.00000000000000E+00   0.00000000000000E+00   0.00000000000000E+00
      0.00000000000000E+00   9.49777239555846E-16
      5.92444444444445E-01
      0.00000000000000E+00   0.00000000000000E+00   0.00000000000000E+00   0.00000000000000E+00  -1.10430329362852E-19
     -1.68590871243601E-15  -1.68601914276537E-15  -6.56440320660722E-15   0.00000000000000E+00   0.00000000000000E+00
      0.00000000000000E+00   0.00000000000000E+00  -8.53333959691409E-17  -1.76319775531142E-27  -8.53333959709041E-17
      1.73540912959063E-15   1.77733333333333E+00   1.77733333333333E+00   0.00000000000000E+00   0.00000000000000E+00
      1.77147108169924E-15  -1.18542962966123E-19   1.77135253873628E-15   3.88542933270993E-15   1.00000000000000E+00
      1.00000000000000E+00   0.00000000000000E+00   0.00000000000000E+00   0.00000000000000E+00   0.00000000000000E+00
      0.00000000000000E+00   9.43564744306648E-16
      6.17444444444445E-01
      0.00000000000000E+00   0.00000000000000E+00   0.00000000000000E+00   0.00000000000000E+00  -6.48346324978037E-20
     -1.78011860119327E-15  -1.78018343582577E-15  -6.63712921129457E-15   0.00000000000000E+00   0.00000000000000E+00
      0.00000000000000E+00   0.00000000000000E+00  -8.55573937308077E-17   1.21537845876340E-27  -8.55573937295923E-17
      1.73540912959048E-15   1.85233333333333E+00   1.85233333333333E+00   0.00000000000000E+00   0.00000000000000E+00
      1.86456589033992E-15   1.17493921544522E-18   1.86574082955536E-15   3.96437944928014E-15   1.00000000000000E+00
      1.00000000000000E+00   0.00000000000000E+00   0.00000000000000E+00   0.00000000000000E+00   0.00000000000000E+00
      0.00000000000000E+00   9.37340632423930E-16
      6.42444444444445E-01
      0.00000000000000E+00   0.00000000000000E+00   0.00000000000000E+00   0.00000000000000E+00  -4.08258071571162E-20
     -1.90602966024584E-15  -1.90607048605300E-15  -6.70945411702896E-15   0.00000000000000E+00   0.00000000000000E+00
      0.00000000000000E+00   0.00000000000000E+00  -8.57508866072282E-17   1.58160125160486E-29  -8.57508866072124E-17
      1.73540912959038E-15   1.92733333333333E+00   1.92733333333333E+00   0.00000000000000E+00   0.00000000000000E+00
      1.98479416746249E-15   7.02720519773055E-18   1.99182137266022E-15   4.04293944655692E-15   1.00000000000000E+00
      1.00000000000000E+00   0.00000000000000E+00   0.00000000000000E+00   0.00000000000000E+00   0.00000000000000E+00
      0.00000000000000E+00   9.31105540881657E-16
      6.67444444444445E-01
      0.00000000000000E+00   0.00000000000000E+00   0.00000000000000E+00   0.00000000000000E+00  -3.50943108357930E-20
     -2.01200768155862E-15  -2.01204277586946E-15  -6.78133755752982E-15   0.00000000000000E+00   0.00000000000000E+00
      0.00000000000000E+00   0.00000000000000E+00  -8.59111382146162E-17  -5.33313745169591E-27  -8.59111382199493E-17
      1.73540912959028E-15   2.00233333333333E+00   2.00233333333333E+00   0.00000000000000E+00   0.00000000000000E+00
      2.09864670513305E-15  -6.92791043651276E-19   2.09795391408940E-15   4.12106831048595E-15   1.00000000000000E+00
      1.00000000000000E+00   0.00000000000000E+00   0.00000000000000E+00   0.00000000000000E+00   0.00000000000000E+00
      0.00000000000000E+00   9.24860117453576E-16
      6.92444444444445E-01
      0.00000000000000E+00   0.00000000000000E+00   0.00000000000000E+00   0.00000000000000E+00  -8.11948463789592E-20
     -2.09097736624921E-15  -2.09105856109559E-15  -6.85271255784436E-15   0.00000000000000E+00   0.00000000000000E+00
      0.00000000000000E+00   0.00000000000000E+00  -8.60700306571978E-17  -3.20782383853291E-27  -8.60700306604056E-17
      1.73540912959021E-15   2.07733333333333E+00   2.07733333333333E+00   0.00000000000000E+00   0.00000000000000E+00
      2.17708880943682E-15   3.97823191701428E-20   2.17712859175599E-15   4.19869842223496E-15   1.00000000000000E+00
      1.00000000000000E+00   0.00000000000000E+00   0.00000000000000E+00   0.00000000000000E+00   0.00000000000000E+00
      0.00000000000000E+00   9.18605006019186E-16
      7.17444444444445E-01
      0.00000000000000E+00   0.00000000000000E+00   0.00000000000000E+00   0.00000000000000E+00  -7.86071168775571E-20
     -2.13539121586738E-15  -2.13546982298426E-15  -6.92348101210740E-15   0.00000000000000E+00   0.00000000000000E+00
      0.00000000000000E+00   0.00000000000000E+00  -8.62467745638903E-17   3.64877498082310E-27  -8.62467745602415E-17
      1.73540912959029E-15   2.15233333333333E+00   2.15233333333333E+00   0.00000000000000E+00   0.00000000000000E+00
      2.22166982924066E-15   4.67683038357280E-20   2.22171659754450E-15   4.27573104448221E-15   1.00000000000000E+00
      1.00000000000000E+00   0.00000000000000E+00   0.00000000000000E+00   0.00000000000000E+00   0.00000000000000E+00
      0.00000000000000E+00   9.12340838034890E-16
      7.42444444444445E-01
      0.00000000000000E+00   0.00000000000000E+00   0.00000000000000E+00   0.00000000000000E+00   1.11862917018311E-19
     -2.16130399821326E-15  -2.16119213529624E-15  -6.99350806734496E-15   0.00000000000000E+00   0.00000000000000E+00
      0.00000000000000E+00   0.00000000000000E+00  -8.64754060088855E-17   2.11006312770058E-28  -8.64754060086745E-17
      1.73540912959082E-15   2.22733333333333E+00   2.22733333333333E+00   0.00000000000000E+00   0.00000000000000E+00
      2.24773855232146E-15  -7.10110165516419E-20   2.24766754130491E-15   4.35203071390518E-15   1.00000000000000E+00
      1.00000000000000E+00   0.00000000000000E+00   0.00000000000000E+00   0.00000000000000E+00   0.00000000000000E+00
      0.00000000000000E+00   9.06068223848960E-16
      7.67444444444445E-01
      0.00000000000000E+00   0.00000000000000E+00   0.00000000000000E+00   0.00000000000000E+00  -1.01406523941843E-19
     -2.17998005566295E-15  -2.18008146218689E-15  -7.06261768105349E-15   0.00000000000000E+00   0.00000000000000E+00
      0.00000000000000E+00   0.00000000000000E+00  -8.65696765272285E-17  -8.45557562851837E-29  -8.65696765273131E-17
      1.73540912958958E-15   2.30233333333333E+00   2.30233333333333E+00   0.00000000000000E+00   0.00000000000000E+00
      2.26658535246578E-15   6.57862484190646E-20   2.26665113871420E-15   4.42742080852156E-15   1.00000000000000E+00
      1.00000000000000E+00   0.00000000000000E+00   0.00000000000000E+00   0.00000000000000E+00   0.00000000000000E+00
      0.00000000000000E+00   8.99787742942352E-16
      7.92444444444445E-01
      0.00000000000000E+00   0.00000000000000E+00   0.00000000000000E+00   0.00000000000000E+00  -4.96849750667450E-20
     -2.19433174316312E-15  -2.19438142813819E-15  -7.13059701132672E-15   0.00000000000000E+00   0.00000000000000E+00
      0.00000000000000E+00   0.00000000000000E+00  -8.67923437306913E-17   5.18578365685461E-27  -8.67923437255055E-17
      1.73540912958945E-15   2.37733333333333E+00   2.37733333333333E+00   0.00000000000000E+00   0.00000000000000E+00
      2.28112745466434E-15   4.63171993556707E-20   2.28117377186369E-15   4.50168794679209E-15   1.00000000000000E+00
      1.00000000000000E+00   0.00000000000000E+00   0.00000000000000E+00   0.00000000000000E+00   0.00000000000000E+00
      0.00000000000000E+00   8.93499934945172E-16
      8.17444444444445E-01
      0.00000000000000E+00   0.00000000000000E+00   0.00000000000000E+00   0.00000000000000E+00  -8.30992380170285E-20
     -2.20450445355292E-15  -2.20458755279094E-15  -7.19722521859390E-15   0.00000000000000E+00   0.00000000000000E+00
      0.00000000000000E+00   0.00000000000000E+00  -8.69286953214823E-17  -2.81525754265547E-27  -8.69286953242976E-17
      1.73540912958932E-15   2.45233333333333E+00   2.45233333333333E+00   0.00000000000000E+00   0.00000000000000E+00
      2.29147644977907E-15   3.97983361738441E-20   2.29151624811524E-15   4.57461079531764E-15   1.00000000000000E+00
      1.00000000000000E+00   0.00000000000000E+00   0.00000000000000E+00   0.00000000000000E+00   0.00000000000000E+00
      0.00000000000000E+00   8.87205293686946E-16
      8.42444444444445E-01
      0.00000000000000E+00   0.00000000000000E+00   0.00000000000000E+00   0.00000000000000E+00  -4.76100181189370E-20
     -2.21100105731351E-15  -2.21104866733163E-15  -7.26234290467990E-15   0.00000000000000E+00   0.00000000000000E+00
      0.00000000000000E+00   0.00000000000000E+00  -8.71327553168458E-17   1.26550254050878E-27  -8.71327553155803E-17
      1.73540912958918E-15   2.52733333333333E+00   2.52733333333333E+00   0.00000000000000E+00   0.00000000000000E+00
      2.29807157090738E-15   1.09851739837209E-19   2.29818142264722E-15   4.64602950926418E-15   1.00000000000000E+00
      1.00000000000000E+00   0.00000000000000E+00   0.00000000000000E+00   0.00000000000000E+00   0.00000000000000E+00
      0.00000000000000E+00   8.80904265826524E-16
      8.67444444444445E-01
      0.00000000000000E+00   0.00000000000000E+00   0.00000000000000E+00   0.00000000000000E+00  -5.35270710579885E-20