DF-ISE text

Info {
  version   = 1.0
  type      = xyplot
  datasets  = [
    "time"
    "substrate OuterVoltage" "substrate InnerVoltage" "substrate QuasiFermiPotential" "substrate DisplacementCurrent" "substrate eCurrent"
    "substrate hCurrent" "substrate TotalCurrent" "substrate Charge" "source OuterVoltage" "source InnerVoltage"
    "source QuasiFermiPotential" "source DisplacementCurrent" "source eCurrent" "source hCurrent" "source TotalCurrent"
    "source Charge" "drain OuterVoltage" "drain InnerVoltage" "drain QuasiFermiPotential" "drain DisplacementCurrent"
    "drain eCurrent" "drain hCurrent" "drain TotalCurrent" "drain Charge" "gate OuterVoltage"
    "gate InnerVoltage" "gate QuasiFermiPotential" "gate DisplacementCurrent" "gate eCurrent" "gate hCurrent"
    "gate TotalCurrent" "gate Charge" ]
  functions = [
    Time
    OuterVoltage InnerVoltage QuasiFermiPotential DisplacementCurrent eCurrent
    hCurrent TotalCurrent Charge OuterVoltage InnerVoltage
    QuasiFermiPotential DisplacementCurrent eCurrent hCurrent TotalCurrent
    Charge OuterVoltage InnerVoltage QuasiFermiPotential DisplacementCurrent
    eCurrent hCurrent TotalCurrent Charge OuterVoltage
    InnerVoltage QuasiFermiPotential DisplacementCurrent eCurrent hCurrent
    TotalCurrent Charge ]
}

Data {
      0.00000000000000E+00
      0.00000000000000E+00   0.00000000000000E+00   0.00000000000000E+00   0.00000000000000E+00   1.20097565102063E-20
     -1.88917359629147E-24   1.20078673366100E-20  -3.35340712078721E-15   0.00000000000000E+00   0.00000000000000E+00
      0.00000000000000E+00   0.00000000000000E+00  -4.98471071907350E-21   1.26930576360861E-24  -4.98344141330989E-21
      1.57087869648564E-15   0.00000000000000E+00   0.00000000000000E+00   0.00000000000000E+00   0.00000000000000E+00
     -7.02504579110428E-21   6.19867804184646E-25  -7.02442592330010E-21   1.57087869648564E-15   0.00000000000000E+00
      0.00000000000000E+00   0.00000000000000E+00   0.00000000000000E+00   0.00000000000000E+00   0.00000000000000E+00
      0.00000000000000E+00   2.11649727815932E-16
      1.00000000000000E-02
      0.00000000000000E+00   0.00000000000000E+00   0.00000000000000E+00   0.00000000000000E+00   6.19354886364184E-18
     -3.36802999365870E-17  -2.74867510729452E-17  -3.38935933070221E-15   0.00000000000000E+00   0.00000000000000E+00
      0.00000000000000E+00   0.00000000000000E+00  -1.24384829745560E-19  -5.73359076252520E-25  -1.24385403104636E-19
      1.57087869648562E-15   3.00000000000000E-02   3.00000000000000E-02   0.00000000000000E+00   0.00000000000000E+00
      2.75929519269628E-17   1.81845490869966E-20   2.76111364760498E-17   1.60928503427670E-15   0.00000000000000E+00
      0.00000000000000E+00   0.00000000000000E+00   0.00000000000000E+00   0.00000000000000E+00   0.00000000000000E+00
      0.00000000000000E+00   2.09195599939895E-16
      2.33333333333333E-02
      0.00000000000000E+00   0.00000000000000E+00   0.00000000000000E+00   0.00000000000000E+00   5.67807640742499E-16
     -6.20639771904694E-17   5.05743663552029E-16  -3.43700272515972E-15   0.00000000000000E+00   0.00000000000000E+00
      0.00000000000000E+00   0.00000000000000E+00  -1.62020602448883E-19   1.91971236077494E-24  -1.62018682736523E-19
      1.57087869648558E-15   7.00000000000000E-02   7.00000000000000E-02   0.00000000000000E+00   0.00000000000000E+00
     -5.05594601215893E-16   1.29563466006012E-20  -5.05581644869292E-16   1.66019005248577E-15   0.00000000000000E+00
      0.00000000000000E+00   0.00000000000000E+00   0.00000000000000E+00   0.00000000000000E+00   0.00000000000000E+00
      0.00000000000000E+00   2.05933976188361E-16
      4.28888888888889E-02
      0.00000000000000E+00   0.00000000000000E+00   0.00000000000000E+00   0.00000000000000E+00  -4.19219827021915E-20
     -9.82530102347628E-17  -9.82949322174650E-17  -3.50633340924469E-15   0.00000000000000E+00   0.00000000000000E+00
      0.00000000000000E+00   0.00000000000000E+00  -1.78032160694201E-19  -1.04024093457940E-24  -1.78033200935135E-19
      1.57087869648558E-15   1.28666666666667E-01   1.28666666666667E-01   0.00000000000000E+00   0.00000000000000E+00
      9.84333505765978E-17   3.96148418024440E-20   9.84729654184003E-17   1.73428939978742E-15   0.00000000000000E+00
      0.00000000000000E+00   0.00000000000000E+00   0.00000000000000E+00   0.00000000000000E+00   0.00000000000000E+00
      0.00000000000000E+00   2.01165312971682E-16
      6.78888888888889E-02
      0.00000000000000E+00   0.00000000000000E+00   0.00000000000000E+00   0.00000000000000E+00  -4.83445805583216E-20
     -1.64933448652235E-16  -1.64981793232793E-16  -3.59406722653122E-15   0.00000000000000E+00   0.00000000000000E+00
      0.00000000000000E+00   0.00000000000000E+00  -1.73971601486286E-19   1.57878182475930E-24  -1.73970022704462E-19
      1.57087869648554E-15   2.03666666666667E-01   2.03666666666667E-01   0.00000000000000E+00   0.00000000000000E+00
      1.65120308903476E-16   3.54543520216411E-20   1.65155763255498E-16   1.82810795847955E-15   0.00000000000000E+00
      0.00000000000000E+00   0.00000000000000E+00   0.00000000000000E+00   0.00000000000000E+00   0.00000000000000E+00
      0.00000000000000E+00   1.95080571566124E-16
      9.28888888888889E-02
      0.00000000000000E+00   0.00000000000000E+00   0.00000000000000E+00   0.00000000000000E+00  -4.38236165429501E-20
     -2.63528620373117E-16  -2.63572443989660E-16  -3.68076617397026E-15   0.00000000000000E+00   0.00000000000000E+00
      0.00000000000000E+00   0.00000000000000E+00  -1.76995960357547E-19   3.94529023925240E-24  -1.76992015067307E-19
      1.57087869648549E-15   2.78666666666667E-01   2.78666666666667E-01   0.00000000000000E+00   0.00000000000000E+00
      2.63715092670246E-16   3.43433344812536E-20   2.63749436004727E-16   1.92089333122311E-15   0.00000000000000E+00
      0.00000000000000E+00   0.00000000000000E+00   0.00000000000000E+00   0.00000000000000E+00   0.00000000000000E+00
      0.00000000000000E+00   1.88994146261662E-16
      1.17888888888889E-01
      0.00000000000000E+00   0.00000000000000E+00   0.00000000000000E+00   0.00000000000000E+00  -5.58665914301810E-20
     -3.81495354899125E-16  -3.81551221490555E-16  -3.76634739796159E-15   0.00000000000000E+00   0.00000000000000E+00
      0.00000000000000E+00   0.00000000000000E+00  -1.65902080906172E-19   2.18166554017640E-24  -1.65899899240632E-19
      1.57087869648542E-15   3.53666666666667E-01   3.53666666666667E-01   0.00000000000000E+00   0.00000000000000E+00
      3.81683392648041E-16   3.37287417542584E-20   3.81717121389796E-16   2.01257217553193E-15   0.00000000000000E+00
      0.00000000000000E+00   0.00000000000000E+00   0.00000000000000E+00   0.00000000000000E+00   0.00000000000000E+00
      0.00000000000000E+00   1.82896525944228E-16
      1.42888888888889E-01
      0.00000000000000E+00   0.00000000000000E+00   0.00000000000000E+00   0.00000000000000E+00  -3.17245153938792E-20
     -5.09331833063469E-16  -5.09363557578863E-16  -3.85069766994244E-15   0.00000000000000E+00   0.00000000000000E+00
      0.00000000000000E+00   0.00000000000000E+00  -1.84145020273855E-19   3.29404882635222E-25  -1.84144690868972E-19
      1.57087869648536E-15   4.28666666666667E-01   4.28666666666667E-01   0.00000000000000E+00   0.00000000000000E+00
      5.09516743719938E-16   3.09585497933750E-20   5.09547702269732E-16   2.10303595060387E-15   0.00000000000000E+00
      0.00000000000000E+00   0.00000000000000E+00   0.00000000000000E+00   0.00000000000000E+00   0.00000000000000E+00
      0.00000000000000E+00   1.76783022853208E-16
      1.67888888888889E-01
      0.00000000000000E+00   0.00000000000000E+00   0.00000000000000E+00   0.00000000000000E+00  -4.14514772090243E-20
     -6.46890190795617E-16  -6.46931642272826E-16  -3.93365686903927E-15   0.00000000000000E+00   0.00000000000000E+00
      0.00000000000000E+00   0.00000000000000E+00  -1.81163210534202E-19  -1.33589441966577E-24  -1.81164546428622E-19
      1.57087869648528E-15   5.03666666666667E-01   5.03666666666667E-01   0.00000000000000E+00   0.00000000000000E+00
      6.47078716608947E-16   3.40902103074579E-20   6.47112806819255E-16   2.19212638189085E-15   0.00000000000000E+00
      0.00000000000000E+00   0.00000000000000E+00   0.00000000000000E+00   0.00000000000000E+00   0.00000000000000E+00
      0.00000000000000E+00   1.70651790663139E-16
      1.92888888888889E-01
      0.00000000000000E+00   0.00000000000000E+00   0.00000000000000E+00   0.00000000000000E+00  -5.31030197922166E-20
     -8.04863427031066E-16  -8.04916530050859E-16  -4.01497239105114E-15   0.00000000000000E+00   0.00000000000000E+00
      0.00000000000000E+00   0.00000000000000E+00  -1.70016252171679E-19   1.39726397816971E-24  -1.70014854907700E-19
      1.57087869648520E-15   5.78666666666667E-01   5.78666666666667E-01   0.00000000000000E+00   0.00000000000000E+00
      8.05052451684943E-16   3.40932208226922E-20   8.05086544905765E-16   2.27959116534835E-15   0.00000000000000E+00
      0.00000000000000E+00   0.00000000000000E+00   0.00000000000000E+00   0.00000000000000E+00   0.00000000000000E+00
      0.00000000000000E+00   1.64502529217589E-16
      2.17888888888889E-01
      0.00000000000000E+00   0.00000000000000E+00   0.00000000000000E+00   0.00000000000000E+00  -6.45066418632729E-20
     -9.66934959921129E-16  -9.66999466562992E-16  -4.09427507587137E-15   0.00000000000000E+00   0.00000000000000E+00
      0.00000000000000E+00   0.00000000000000E+00  -1.58910223309591E-19   4.05224275085067E-25  -1.58909818085316E-19
      1.57087869648511E-15   6.53666666666667E-01   6.53666666666667E-01   0.00000000000000E+00   0.00000000000000E+00
      9.67124279785848E-16   3.40965952302190E-20   9.67158376381079E-16   2.36506061371869E-15   0.00000000000000E+00
      0.00000000000000E+00   0.00000000000000E+00   0.00000000000000E+00   0.00000000000000E+00   0.00000000000000E+00
      0.00000000000000E+00   1.58335765667563E-16
      2.42888888888889E-01
      0.00000000000000E+00   0.00000000000000E+00   0.00000000000000E+00   0.00000000000000E+00  -4.29262466201792E-20
     -1.07627821163152E-15  -1.07632113787814E-15  -4.17113774456625E-15   0.00000000000000E+00   0.00000000000000E+00
      0.00000000000000E+00   0.00000000000000E+00  -1.80996745672543E-19   1.03511196129736E-24  -1.80995710560581E-19
      1.57087869648505E-15   7.28666666666667E-01   7.28666666666667E-01   0.00000000000000E+00   0.00000000000000E+00
      1.07646803052378E-15   3.41030649210820E-20   1.07650213358870E-15   2.44810658775101E-15   0.00000000000000E+00
      0.00000000000000E+00   0.00000000000000E+00   0.00000000000000E+00   0.00000000000000E+00   0.00000000000000E+00
      0.00000000000000E+00   1.52152460330179E-16
      2.67888888888889E-01
      0.00000000000000E+00   0.00000000000000E+00   0.00000000000000E+00   0.00000000000000E+00  -5.86805796301305E-20
     -1.13053089752104E-15  -1.13058957810067E-15  -4.24527456290539E-15   0.00000000000000E+00   0.00000000000000E+00
      0.00000000000000E+00   0.00000000000000E+00  -1.65724605386983E-19   2.43318142213862E-24  -1.65722172205561E-19
      1.57087869648502E-15   8.03666666666667E-01   8.03666666666667E-01   0.00000000000000E+00   0.00000000000000E+00
      1.13072119125818E-15   3.41090146977038E-20   1.13075530027287E-15   2.52844210744688E-15   0.00000000000000E+00
      0.00000000000000E+00   0.00000000000000E+00   0.00000000000000E+00   0.00000000000000E+00   0.00000000000000E+00
      0.00000000000000E+00   1.45953758973489E-16
      2.92888888888889E-01
      0.00000000000000E+00   0.00000000000000E+00   0.00000000000000E+00   0.00000000000000E+00  -4.35425244422692E-20
     -1.16007170246925E-15  -1.16011524499369E-15  -4.31680733686917E-15   0.00000000000000E+00   0.00000000000000E+00
      0.00000000000000E+00   0.00000000000000E+00  -1.81139059256675E-19  -2.27077050499701E-24  -1.81141330027180E-19
      1.57087869648501E-15   8.78666666666667E-01   8.78666666666667E-01   0.00000000000000E+00   0.00000000000000E+00
      1.16026227155672E-15   3.41147670018839E-20   1.16029638632372E-15   2.60618783572516E-15   0.00000000000000E+00
      0.00000000000000E+00   0.00000000000000E+00   0.00000000000000E+00   0.00000000000000E+00   0.00000000000000E+00
      0.00000000000000E+00   1.39740804659006E-16
      3.17888888888889E-01
      0.00000000000000E+00   0.00000000000000E+00   0.00000000000000E+00   0.00000000000000E+00  -5.55007797549934E-20
     -1.17989178016190E-15  -1.17994728094166E-15  -4.38628666027880E-15   0.00000000000000E+00   0.00000000000000E+00
      0.00000000000000E+00   0.00000000000000E+00  -1.69804804007520E-19   2.16072632574233E-24  -1.69802643281194E-19
      1.57087869648500E-15   9.53666666666667E-01   9.53666666666667E-01   0.00000000000000E+00   0.00000000000000E+00
      1.18008296313469E-15   3.41204502501290E-20   1.18011708358494E-15   2.68189337633663E-15   0.00000000000000E+00
      0.00000000000000E+00   0.00000000000000E+00   0.00000000000000E+00   0.00000000000000E+00   0.00000000000000E+00
      0.00000000000000E+00   1.33514587457161E-16
      3.42888888888889E-01
      0.00000000000000E+00   0.00000000000000E+00   0.00000000000000E+00   0.00000000000000E+00  -4.90003010447582E-20
     -1.19410567449988E-15  -1.19415467480093E-15  -4.45437530160629E-15   0.00000000000000E+00   0.00000000000000E+00
      0.00000000000000E+00   0.00000000000000E+00  -1.76742990623003E-19  -2.05693578938066E-24  -1.76745047558793E-19
      1.57087869648499E-15   1.02866666666667E+00   1.02866666666667E+00   0.00000000000000E+00   0.00000000000000E+00
      1.19429729378725E-15   3.41260612318196E-20   1.19433141984848E-15   2.75622075975916E-15   0.00000000000000E+00
      0.00000000000000E+00   0.00000000000000E+00   0.00000000000000E+00   0.00000000000000E+00   0.00000000000000E+00
      0.00000000000000E+00   1.27275845362145E-16
      3.67888888888889E-01
      0.00000000000000E+00   0.00000000000000E+00   0.00000000000000E+00   0.00000000000000E+00  -3.98975302531824E-20
     -1.20664914822961E-15  -1.20668904575986E-15  -4.52157140398221E-15   0.00000000000000E+00   0.00000000000000E+00
      0.00000000000000E+00   0.00000000000000E+00  -1.86272277288064E-19   1.88741391167822E-25  -1.86272088546672E-19
      1.57087869648498E-15   1.10366666666667E+00   1.10366666666667E+00   0.00000000000000E+00   0.00000000000000E+00
      1.20684118629940E-15   3.41315490053758E-20   1.20687531784841E-15   2.82966767330535E-15   0.00000000000000E+00
      0.00000000000000E+00   0.00000000000000E+00   0.00000000000000E+00   0.00000000000000E+00   0.00000000000000E+00
      0.00000000000000E+00   1.21025034191875E-16
      3.92888888888889E-01
      0.00000000000000E+00   0.00000000000000E+00   0.00000000000000E+00   0.00000000000000E+00  -5.57415486244976E-20
     -1.22007924249387E-15  -1.22013498404249E-15  -4.58816759490920E-15   0.00000000000000E+00   0.00000000000000E+00
      0.00000000000000E+00   0.00000000000000E+00  -1.70853611262819E-19   1.41477122256204E-24  -1.70852196491596E-19
      1.57087869648497E-15   1.17866666666667E+00   1.17866666666667E+00   0.00000000000000E+00   0.00000000000000E+00
      1.22027169930333E-15   3.41369356497164E-20   1.22030583623898E-15   2.90252653549352E-15   0.00000000000000E+00
      0.00000000000000E+00   0.00000000000000E+00   0.00000000000000E+00   0.00000000000000E+00   0.00000000000000E+00
      0.00000000000000E+00   1.14762362930707E-16
      4.17888888888889E-01
      0.00000000000000E+00   0.00000000000000E+00   0.00000000000000E+00   0.00000000000000E+00  -6.39557902845671E-20
     -1.23461364982065E-15  -1.23467760561094E-15  -4.65431596298521E-15   0.00000000000000E+00   0.00000000000000E+00
      0.00000000000000E+00   0.00000000000000E+00  -1.63049673574198E-19  -2.86270509083888E-24  -1.63052536279289E-19
      1.57087869648496E-15   1.25366666666667E+00   1.25366666666667E+00   0.00000000000000E+00   0.00000000000000E+00
      1.23480651565278E-15   3.41424944391912E-20   1.23484065814722E-15   2.97494939785449E-15   0.00000000000000E+00
      0.00000000000000E+00   0.00000000000000E+00   0.00000000000000E+00   0.00000000000000E+00   0.00000000000000E+00
      0.00000000000000E+00   1.08487868645757E-16
      4.42888888888889E-01
      0.00000000000000E+00   0.00000000000000E+00   0.00000000000000E+00   0.00000000000000E+00  -6.91845305569077E-20
     -1.24961366003278E-15  -1.24968284456334E-15  -4.72008930012318E-15   0.00000000000000E+00   0.00000000000000E+00
      0.00000000000000E+00   0.00000000000000E+00  -1.56665141847092E-19   2.65452596108189E-25  -1.56664876394496E-19
      1.57087869648441E-15   1.32866666666667E+00   1.32866666666667E+00   0.00000000000000E+00   0.00000000000000E+00
      1.24980823640938E-15   3.12730303496351E-20   1.24983950943973E-15   3.04700910081378E-15   0.00000000000000E+00
      0.00000000000000E+00   0.00000000000000E+00   0.00000000000000E+00   0.00000000000000E+00   0.00000000000000E+00
      0.00000000000000E+00   1.02201502824985E-16
      4.67888888888889E-01
      0.00000000000000E+00   0.00000000000000E+00   0.00000000000000E+00   0.00000000000000E+00  -4.94686457254926E-20
     -1.26484067646936E-15  -1.26489014511508E-15  -4.78551897726596E-15   0.00000000000000E+00   0.00000000000000E+00
      0.00000000000000E+00   0.00000000000000E+00  -1.77223458408342E-19  -9.84632031583673E-25  -1.77224443040374E-19
      1.57087869648431E-15   1.40366666666667E+00   1.40366666666667E+00   0.00000000000000E+00   0.00000000000000E+00
      1.26503496259699E-15   3.24069611340836E-20   1.26506736955813E-15   3.11873707040020E-15   0.00000000000000E+00
      0.00000000000000E+00   0.00000000000000E+00   0.00000000000000E+00   0.00000000000000E+00   0.00000000000000E+00
      0.00000000000000E+00   9.59032103814501E-17
      4.92888888888889E-01
      0.00000000000000E+00   0.00000000000000E+00   0.00000000000000E+00   0.00000000000000E+00  -4.61410874638261E-20
     -1.28120987008155E-15  -1.28125601116901E-15  -4.85061639406161E-15   0.00000000000000E+00   0.00000000000000E+00
      0.00000000000000E+00   0.00000000000000E+00  -1.82022628181641E-19  -2.07211604464859E-24  -1.82024700297685E-19
      1.57087869648493E-15   1.47866666666667E+00   1.47866666666667E+00   0.00000000000000E+00   0.00000000000000E+00
      1.28140387588197E-15   3.41599873371041E-20   1.28143803586931E-15   3.19014470828794E-15   0.00000000000000E+00
      0.00000000000000E+00   0.00000000000000E+00   0.00000000000000E+00   0.00000000000000E+00   0.00000000000000E+00
      0.00000000000000E+00   8.95929892887267E-17
      5.17888888888889E-01
      0.00000000000000E+00   0.00000000000000E+00   0.00000000000000E+00   0.00000000000000E+00  -5.67988848806138E-20
     -1.29979520818829E-15  -1.29985200707317E-15  -4.91538516637934E-15   0.00000000000000E+00   0.00000000000000E+00
      0.00000000000000E+00   0.00000000000000E+00  -1.71730458051942E-19  -4.59521416669578E-25  -1.71730917573359E-19
      1.57087869648492E-15   1.55366666666667E+00   1.55366666666667E+00   0.00000000000000E+00   0.00000000000000E+00
      1.29998957236856E-15   3.41656221795965E-20   1.30002373799074E-15   3.26123554595791E-15   0.00000000000000E+00
      0.00000000000000E+00   0.00000000000000E+00   0.00000000000000E+00   0.00000000000000E+00   0.00000000000000E+00
      0.00000000000000E+00   8.32709239365067E-17
      5.42888888888889E-01
      0.00000000000000E+00   0.00000000000000E+00   0.00000000000000E+00   0.00000000000000E+00  -6.70664840370022E-20
     -1.32000538367413E-15  -1.32007245015817E-15  -4.97982827770147E-15   0.00000000000000E+00   0.00000000000000E+00
      0.00000000000000E+00   0.00000000000000E+00  -1.61821226498404E-19   9.06925359034302E-25  -1.61820319573045E-19
      1.57087869648491E-15   1.62866666666667E+00   1.62866666666667E+00   0.00000000000000E+00   0.00000000000000E+00
      1.32020009944038E-15   3.41710373592355E-20   1.32023427047774E-15   3.33201238850509E-15   0.00000000000000E+00
      0.00000000000000E+00   0.00000000000000E+00   0.00000000000000E+00   0.00000000000000E+00   0.00000000000000E+00
      0.00000000000000E+00   7.69371927114581E-17
      5.67888888888889E-01
      0.00000000000000E+00   0.00000000000000E+00   0.00000000000000E+00   0.00000000000000E+00  -5.49111663807025E-20
     -1.34327722786436E-15  -1.34333213903074E-15  -5.04395113630637E-15   0.00000000000000E+00   0.00000000000000E+00
      0.00000000000000E+00   0.00000000000000E+00  -1.74328941896213E-19   2.79438788446687E-24  -1.74326147508328E-19
      1.57087869648490E-15   1.70366666666667E+00   1.70366666666667E+00   0.00000000000000E+00   0.00000000000000E+00
      1.34347228893354E-15   3.41762447076927E-20   1.34350646517824E-15   3.40248038547402E-15   0.00000000000000E+00
      0.00000000000000E+00   0.00000000000000E+00   0.00000000000000E+00   0.00000000000000E+00   0.00000000000000E+00
      0.00000000000000E+00   7.05920543474469E-17
      5.92888888888889E-01
      0.00000000000000E+00   0.00000000000000E+00   0.00000000000000E+00   0.00000000000000E+00  -6.09438291304565E-20
     -1.37754116898670E-15  -1.37760211281583E-15  -5.10775960847721E-15   0.00000000000000E+00   0.00000000000000E+00
      0.00000000000000E+00   0.00000000000000E+00  -1.68641391235595E-19  -2.90749381860861E-24  -1.68644298729414E-19
      1.57087869648476E-15   1.77866666666667E+00   1.77866666666667E+00   0.00000000000000E+00   0.00000000000000E+00
      1.37773666479500E-15   3.40923195601261E-20   1.37777075711456E-15   3.47264509554016E-15   0.00000000000000E+00
      0.00000000000000E+00   0.00000000000000E+00   0.00000000000000E+00   0.00000000000000E+00   0.00000000000000E+00
      0.00000000000000E+00   6.42358164522843E-17
      6.17888888888889E-01
      0.00000000000000E+00   0.00000000000000E+00   0.00000000000000E+00   0.00000000000000E+00  -7.01485729855502E-20
     -1.43556636247208E-15  -1.43563651104506E-15  -5.17125392205988E-15   0.00000000000000E+00   0.00000000000000E+00
      0.00000000000000E+00   0.00000000000000E+00  -1.59776718753470E-19   1.25336298426042E-26  -1.59776706219841E-19
      1.57087869648486E-15   1.85366666666667E+00   1.85366666666667E+00   0.00000000000000E+00   0.00000000000000E+00
      1.43576211960611E-15   3.41681451744923E-20   1.43579628775128E-15   3.54250643280980E-15   0.00000000000000E+00
      0.00000000000000E+00   0.00000000000000E+00   0.00000000000000E+00   0.00000000000000E+00   0.00000000000000E+00
      0.00000000000000E+00   5.78687927652105E-17
      6.42888888888889E-01
      0.00000000000000E+00   0.00000000000000E+00   0.00000000000000E+00   0.00000000000000E+00  -6.08789671978635E-20
     -1.52159523672416E-15  -1.52165611569136E-15  -5.23442195443452E-15   0.00000000000000E+00   0.00000000000000E+00
      0.00000000000000E+00   0.00000000000000E+00  -1.69370377553051E-19  -1.28277502854386E-24  -1.69371660328079E-19
      1.57087869648486E-15   1.92866666666667E+00   1.92866666666667E+00   0.00000000000000E+00   0.00000000000000E+00
      1.52179129924771E-15   3.41881039820129E-20   1.52182548735169E-15   3.61205199556387E-15   0.00000000000000E+00
      0.00000000000000E+00   0.00000000000000E+00   0.00000000000000E+00   0.00000000000000E+00   0.00000000000000E+00
      0.00000000000000E+00   5.14912623857868E-17
      6.67888888888889E-01
      0.00000000000000E+00   0.00000000000000E+00   0.00000000000000E+00   0.00000000000000E+00  -5.32595769012338E-20
     -1.61514536858451E-15  -1.61519862816141E-15  -5.29723440513041E-15   0.00000000000000E+00   0.00000000000000E+00
      0.00000000000000E+00   0.00000000000000E+00  -1.77260645843339E-19  -2.78147664579906E-24  -1.77263427319984E-19
      1.57087869648485E-15   2.00366666666667E+00   2.00366666666667E+00   0.00000000000000E+00   0.00000000000000E+00
      1.61534169676378E-15   3.41948249496125E-20   1.61537589158873E-15   3.68125226639771E-15   0.00000000000000E+00
      0.00000000000000E+00   0.00000000000000E+00   0.00000000000000E+00   0.00000000000000E+00   0.00000000000000E+00
      0.00000000000000E+00   4.51034422478402E-17
      6.92888888888889E-01
      0.00000000000000E+00   0.00000000000000E+00   0.00000000000000E+00   0.00000000000000E+00  -5.76319319188336E-20
     -1.68780869700820E-15  -1.68786632894011E-15  -5.35964144973613E-15   0.00000000000000E+00   0.00000000000000E+00
      0.00000000000000E+00   0.00000000000000E+00  -1.73076205077961E-19  -1.89624110123565E-24  -1.73078101319062E-19
      1.57087869648491E-15   2.07866666666667E+00   2.07866666666667E+00   0.00000000000000E+00   0.00000000000000E+00
      1.68800520929610E-15   3.41977453367415E-20   1.68803940704143E-15   3.75005727798460E-15   0.00000000000000E+00
      0.00000000000000E+00   0.00000000000000E+00   0.00000000000000E+00   0.00000000000000E+00   0.00000000000000E+00
      0.00000000000000E+00   3.87054752666097E-17
      7.17888888888889E-01
      0.00000000000000E+00   0.00000000000000E+00   0.00000000000000E+00   0.00000000000000E+00  -6.44538487679460E-20
     -1.73209005780365E-15  -1.73215451165242E-15  -5.42156928770832E-15   0.00000000000000E+00   0.00000000000000E+00
      0.00000000000000E+00   0.00000000000000E+00  -1.66451695924287E-19  -1.56115719291805E-24  -1.66453257081480E-19
      1.57087869648507E-15   2.15366666666667E+00   2.15366666666667E+00   0.00000000000000E+00   0.00000000000000E+00
      1.73228676652454E-15   3.41983849581593E-20   1.73232096490950E-15   3.81839316022430E-15   0.00000000000000E+00
      0.00000000000000E+00   0.00000000000000E+00   0.00000000000000E+00   0.00000000000000E+00   0.00000000000000E+00
      0.00000000000000E+00   3.22974309989436E-17
      7.42888888888889E-01
      0.00000000000000E+00   0.00000000000000E+00   0.00000000000000E+00   0.00000000000000E+00  -6.47755119972340E-20
     -1.75685764096938E-15  -1.75692241648137E-15  -5.48291576731160E-15   0.00000000000000E+00   0.00000000000000E+00
      0.00000000000000E+00   0.00000000000000E+00  -1.66548882981594E-19  -3.00175592132587E-24  -1.66551884737516E-19
      1.57087869648542E-15   2.22866666666667E+00   2.22866666666667E+00   0.00000000000000E+00   0.00000000000000E+00
      1.75705476204291E-15   3.42063231999442E-20   1.75708896836611E-15   3.88615775592948E-15   0.00000000000000E+00
      0.00000000000000E+00   0.00000000000000E+00   0.00000000000000E+00   0.00000000000000E+00   0.00000000000000E+00
      0.00000000000000E+00   2.58793148966956E-17
      7.67888888888889E-01
      0.00000000000000E+00   0.00000000000000E+00   0.00000000000000E+00   0.00000000000000E+00  -5.55262733650768E-20
     -1.77213192349815E-15  -1.77218744977151E-15  -5.54354620213402E-15   0.00000000000000E+00   0.00000000000000E+00
      0.00000000000000E+00   0.00000000000000E+00  -1.76316766982412E-19  -3.66081655221096E-24  -1.76320427798964E-19
      1.57087869648604E-15   2.30366666666667E+00   2.30366666666667E+00   0.00000000000000E+00   0.00000000000000E+00
      1.77232955806295E-15   3.42121363648085E-20   1.77236377019931E-15   3.95321642262748E-15   0.00000000000000E+00
      0.00000000000000E+00   0.00000000000000E+00   0.00000000000000E+00   0.00000000000000E+00   0.00000000000000E+00
      0.00000000000000E+00   1.94510830204950E-17
      7.92888888888889E-01
      0.00000000000000E+00   0.00000000000000E+00   0.00000000000000E+00   0.00000000000000E+00  -5.47084775496479E-20
     -1.78366722522033E-15  -1.78372193369788E-15  -5.60329415390972E-15   0.00000000000000E+00   0.00000000000000E+00
      0.00000000000000E+00   0.00000000000000E+00  -1.77679141536750E-19   1.38716395256823E-24  -1.77677754372797E-19
      1.57087869648467E-15   2.37866666666667E+00   2.37866666666667E+00   0.00000000000000E+00   0.00000000000000E+00
      1.78386539535896E-15   3.42160932910302E-20   1.78389961145225E-15   4.01940279770058E-15   0.00000000000000E+00
      0.00000000000000E+00   0.00000000000000E+00   0.00000000000000E+00   0.00000000000000E+00   0.00000000000000E+00
      0.00000000000000E+00   1.30126597244779E-17
      8.17888888888889E-01
      0.00000000000000E+00   0.00000000000000E+00   0.00000000000000E+00   0.00000000000000E+00  -4.84457970843645E-20
     -1.79335171732404E-15  -1.79340016312113E-15  -5.66197818722573E-15   0.00000000000000E+00   0.00000000000000E+00
      0.00000000000000E+00   0.00000000000000E+00  -1.84295369240121E-19  -8.14362154725946E-25  -1.84296183602276E-19
      1.57087869648466E-15   2.45366666666667E+00   2.45366666666667E+00   0.00000000000000E+00   0.00000000000000E+00
      1.79355023951622E-15   3.42197885114118E-20   1.79358445930473E-15   4.08453553441296E-15   0.00000000000000E+00
      0.00000000000000E+00   0.00000000000000E+00   0.00000000000000E+00   0.00000000000000E+00   0.00000000000000E+00
      0.00000000000000E+00   6.56395632809791E-18
      8.42888888888889E-01
      0.00000000000000E+00   0.00000000000000E+00   0.00000000000000E+00   0.00000000000000E+00  -6.68890271121314E-20
     -1.80100798069974E-15  -1.80107486972685E-15  -5.71944963111489E-15   0.00000000000000E+00   0.00000000000000E+00
      0.00000000000000E+00   0.00000000000000E+00  -1.66204213419211E-19  -4.06424598603715E-24  -1.66208277665197E-19
      1.57087869648465E-15   2.52866666666667E+00   2.52866666666667E+00   0.00000000000000E+00   0.00000000000000E+00
      1.80120685468120E-15   3.42233233118209E-20   1.80124107800451E-15   4.14846604530286E-15   0.00000000000000E+00
      0.00000000000000E+00   0.00000000000000E+00   0.00000000000000E+00   0.00000000000000E+00   0.00000000000000E+00
      0.00000000000000E+00   1.04889327362458E-19
      8.67888888888889E-01
      0.00000000000000E+00   0.00000000000000E+00   0.00000000000000E+00   0.00000000000000E+00  -6.64842910319120E-20