DF-ISE text

Info {
  version   = 1.0
  type      = xyplot
  datasets  = [
    "time"
    "substrate OuterVoltage" "substrate InnerVoltage" "substrate QuasiFermiPotential" "substrate DisplacementCurrent" "substrate eCurrent"
    "substrate hCurrent" "substrate TotalCurrent" "substrate Charge" "source OuterVoltage" "source InnerVoltage"
    "source QuasiFermiPotential" "source DisplacementCurrent" "source eCurrent" "source hCurrent" "source TotalCurrent"
    "source Charge" "drain OuterVoltage" "drain InnerVoltage" "drain QuasiFermiPotential" "drain DisplacementCurrent"
    "drain eCurrent" "drain hCurrent" "drain TotalCurrent" "drain Charge" "gate OuterVoltage"
    "gate InnerVoltage" "gate QuasiFermiPotential" "gate DisplacementCurrent" "gate eCurrent" "gate hCurrent"
    "gate TotalCurrent" "gate Charge" ]
  functions = [
    Time
    OuterVoltage InnerVoltage QuasiFermiPotential DisplacementCurrent eCurrent
    hCurrent TotalCurrent Charge OuterVoltage InnerVoltage
    QuasiFermiPotential DisplacementCurrent eCurrent hCurrent TotalCurrent
    Charge OuterVoltage InnerVoltage QuasiFermiPotential DisplacementCurrent
    eCurrent hCurrent TotalCurrent Charge OuterVoltage
    InnerVoltage QuasiFermiPotential DisplacementCurrent eCurrent hCurrent
    TotalCurrent Charge ]
}

Data {
      0.00000000000000E+00
      0.00000000000000E+00   0.00000000000000E+00   0.00000000000000E+00   0.00000000000000E+00  -1.37920610353897E-22
     -7.72819864525364E-25  -1.38693430218422E-22  -3.11947415051427E-15   0.00000000000000E+00   0.00000000000000E+00
      0.00000000000000E+00   0.00000000000000E+00   4.04081788092208E-23   1.47107619934078E-25   4.05552864291549E-23
      1.47062476848915E-15   0.00000000000000E+00   0.00000000000000E+00   0.00000000000000E+00   0.00000000000000E+00
      9.75124316442910E-23   6.25712144976135E-25   9.81381437892671E-23   1.47062476848915E-15   0.00000000000000E+00
      0.00000000000000E+00   0.00000000000000E+00   0.00000000000000E+00   0.00000000000000E+00   0.00000000000000E+00
      0.00000000000000E+00   1.78224613535964E-16
      1.00000000000000E-02
      0.00000000000000E+00   0.00000000000000E+00   0.00000000000000E+00   0.00000000000000E+00   2.55632615591360E-19
     -2.64259546743597E-17  -2.61703220587684E-17  -3.15289701509342E-15   0.00000000000000E+00   0.00000000000000E+00
      0.00000000000000E+00   0.00000000000000E+00  -1.30350047355559E-19   9.09552927944413E-26  -1.30349956400267E-19
      1.47062476848914E-15   3.00000000000000E-02   3.00000000000000E-02   0.00000000000000E+00   0.00000000000000E+00
      2.62818702430164E-17   1.88017721521945E-20   2.63006720151686E-17   1.50667013848197E-15   0.00000000000000E+00
      0.00000000000000E+00   0.00000000000000E+00   0.00000000000000E+00   0.00000000000000E+00   0.00000000000000E+00
      0.00000000000000E+00   1.75602108122313E-16
      2.33333333333333E-02
      0.00000000000000E+00   0.00000000000000E+00   0.00000000000000E+00   0.00000000000000E+00   7.34089977998067E-18
     -5.04059414096722E-17  -4.30650416296915E-17  -3.19717538247074E-15   0.00000000000000E+00   0.00000000000000E+00
      0.00000000000000E+00   0.00000000000000E+00  -1.72993042965379E-19   5.35828536112255E-26  -1.72992989382525E-19
      1.47062476848909E-15   7.00000000000000E-02   7.00000000000000E-02   0.00000000000000E+00   0.00000000000000E+00
      4.32435787206603E-17  -5.54410158626606E-21   4.32380346190740E-17   1.55443399143731E-15   0.00000000000000E+00
      0.00000000000000E+00   0.00000000000000E+00   0.00000000000000E+00   0.00000000000000E+00   0.00000000000000E+00
      0.00000000000000E+00   1.72116622544347E-16
      4.28888888888889E-02
      0.00000000000000E+00   0.00000000000000E+00   0.00000000000000E+00   0.00000000000000E+00  -4.82021226977912E-20
     -8.09442129019354E-17  -8.09924150246332E-17  -3.26156405202358E-15   0.00000000000000E+00   0.00000000000000E+00
      0.00000000000000E+00   0.00000000000000E+00  -1.79548399217548E-19   2.75890770186608E-25  -1.79548123326778E-19
      1.47062476848910E-15   1.28666666666667E-01   1.28666666666667E-01   0.00000000000000E+00   0.00000000000000E+00
      8.11364964224766E-17   3.54667254835482E-20   8.11719631479601E-17   1.62391332289554E-15   0.00000000000000E+00
      0.00000000000000E+00   0.00000000000000E+00   0.00000000000000E+00   0.00000000000000E+00   0.00000000000000E+00
      0.00000000000000E+00   1.67025960638932E-16
      6.78888888888889E-02
      0.00000000000000E+00   0.00000000000000E+00   0.00000000000000E+00   0.00000000000000E+00  -4.81796430687510E-20
     -1.29196036548931E-16  -1.29244216192000E-16  -3.34294773075799E-15   0.00000000000000E+00   0.00000000000000E+00
      0.00000000000000E+00   0.00000000000000E+00  -1.79436469338809E-19   1.30361953637376E-25  -1.79436338976855E-19
      1.47062476848908E-15   2.03666666666667E-01   2.03666666666667E-01   0.00000000000000E+00   0.00000000000000E+00
      1.29385453953219E-16   3.81985777577134E-20   1.29423652530977E-16   1.71177569905212E-15   0.00000000000000E+00
      0.00000000000000E+00   0.00000000000000E+00   0.00000000000000E+00   0.00000000000000E+00   0.00000000000000E+00
      0.00000000000000E+00   1.60547263216808E-16
      9.28888888888889E-02
      0.00000000000000E+00   0.00000000000000E+00   0.00000000000000E+00   0.00000000000000E+00  -4.81550092579683E-20
     -1.97938684534921E-16  -1.97986839544179E-16  -3.42327162007946E-15   0.00000000000000E+00   0.00000000000000E+00
      0.00000000000000E+00   0.00000000000000E+00  -1.79947952798672E-19  -6.40251783360702E-25  -1.79948593050456E-19
      1.47062476848903E-15   2.78666666666667E-01   2.78666666666667E-01   0.00000000000000E+00   0.00000000000000E+00
      1.98135545110103E-16   3.12430271271016E-20   1.98166788137230E-16   1.79855992530461E-15   0.00000000000000E+00
      0.00000000000000E+00   0.00000000000000E+00   0.00000000000000E+00   0.00000000000000E+00   0.00000000000000E+00
      0.00000000000000E+00   1.54086926285813E-16
      1.17888888888889E-01
      0.00000000000000E+00   0.00000000000000E+00   0.00000000000000E+00   0.00000000000000E+00  -4.81923115826535E-20
     -2.94903077310920E-16  -2.94951269622503E-16  -3.50249466638957E-15   0.00000000000000E+00   0.00000000000000E+00
      0.00000000000000E+00   0.00000000000000E+00  -1.80432581270114E-19   8.91550592252237E-25  -1.80431689719522E-19
      1.47062476848898E-15   3.53666666666667E-01   3.53666666666667E-01   0.00000000000000E+00   0.00000000000000E+00
      2.95100441214189E-16   3.12600980328299E-20   2.95131701312222E-16   1.88424066908717E-15   0.00000000000000E+00
      0.00000000000000E+00   0.00000000000000E+00   0.00000000000000E+00   0.00000000000000E+00   0.00000000000000E+00
      0.00000000000000E+00   1.47629228813433E-16
      1.42888888888889E-01
      0.00000000000000E+00   0.00000000000000E+00   0.00000000000000E+00   0.00000000000000E+00  -4.37840013185762E-20
     -4.20613760389507E-16  -4.20657544390825E-16  -3.58055097561407E-15   0.00000000000000E+00   0.00000000000000E+00
      0.00000000000000E+00   0.00000000000000E+00  -1.80920105699073E-19   1.14016840590331E-25  -1.80919991682232E-19
      1.47062476848891E-15   4.28666666666667E-01   4.28666666666667E-01   0.00000000000000E+00   0.00000000000000E+00
      4.20807221926566E-16   3.12424559416089E-20   4.20838464382507E-16   1.96876380521408E-15   0.00000000000000E+00
      0.00000000000000E+00   0.00000000000000E+00   0.00000000000000E+00   0.00000000000000E+00   0.00000000000000E+00
      0.00000000000000E+00   1.41162401911089E-16
      1.67888888888889E-01
      0.00000000000000E+00   0.00000000000000E+00   0.00000000000000E+00   0.00000000000000E+00  -4.86399421654252E-20
     -5.71178969403409E-16  -5.71227609345574E-16  -3.65731457736479E-15   0.00000000000000E+00   0.00000000000000E+00
      0.00000000000000E+00   0.00000000000000E+00  -1.81256525856724E-19  -1.19838368631126E-24  -1.81257724240410E-19
      1.47062476848882E-15   5.03666666666667E-01   5.03666666666667E-01   0.00000000000000E+00   0.00000000000000E+00
      5.71377615475357E-16   3.12515944578012E-20   5.71408867069815E-16   2.05201030304676E-15   0.00000000000000E+00
      0.00000000000000E+00   0.00000000000000E+00   0.00000000000000E+00   0.00000000000000E+00   0.00000000000000E+00
      0.00000000000000E+00   1.34679505829209E-16
      1.92888888888889E-01
      0.00000000000000E+00   0.00000000000000E+00   0.00000000000000E+00   0.00000000000000E+00  -4.84941948383773E-20
     -7.43679424881216E-16  -7.43727919076054E-16  -3.73255833451764E-15   0.00000000000000E+00   0.00000000000000E+00
      0.00000000000000E+00   0.00000000000000E+00  -1.81934083322806E-19  -1.48807470969412E-25  -1.81934232130277E-19
      1.47062476848872E-15   5.78666666666667E-01   5.78666666666667E-01   0.00000000000000E+00   0.00000000000000E+00
      7.43878602997547E-16   3.12503106370860E-20   7.43909853308184E-16   2.13375632480682E-15   0.00000000000000E+00
      0.00000000000000E+00   0.00000000000000E+00   0.00000000000000E+00   0.00000000000000E+00   0.00000000000000E+00
      0.00000000000000E+00   1.28177241222097E-16
      2.17888888888889E-01
      0.00000000000000E+00   0.00000000000000E+00   0.00000000000000E+00   0.00000000000000E+00  -4.87742385762993E-20
     -9.03270572666141E-16  -9.03319346904717E-16  -3.80595012568447E-15   0.00000000000000E+00   0.00000000000000E+00
      0.00000000000000E+00   0.00000000000000E+00  -1.82198304972926E-19   2.94190713131016E-25  -1.82198010782213E-19
      1.47062476848863E-15   6.53666666666667E-01   6.53666666666667E-01   0.00000000000000E+00   0.00000000000000E+00
      9.03470289769305E-16   3.12551461956152E-20   9.03501544915500E-16   2.21367087511867E-15   0.00000000000000E+00
      0.00000000000000E+00   0.00000000000000E+00   0.00000000000000E+00   0.00000000000000E+00   0.00000000000000E+00
      0.00000000000000E+00   1.21654482077169E-16
      2.42888888888889E-01
      0.00000000000000E+00   0.00000000000000E+00   0.00000000000000E+00   0.00000000000000E+00  -4.88022416457916E-20
     -1.00096420837600E-15  -1.00101301061765E-15  -3.87713459465729E-15   0.00000000000000E+00   0.00000000000000E+00
      0.00000000000000E+00   0.00000000000000E+00  -1.82697046665743E-19   8.68933051354752E-25  -1.82696177732691E-19
      1.47062476848858E-15   7.28666666666667E-01   7.28666666666667E-01   0.00000000000000E+00   0.00000000000000E+00
      1.00116444699484E-15   3.12598005438020E-20   1.00119570679538E-15   2.29139861306853E-15   0.00000000000000E+00
      0.00000000000000E+00   0.00000000000000E+00   0.00000000000000E+00   0.00000000000000E+00   0.00000000000000E+00
      0.00000000000000E+00   1.15111213100192E-16
      2.67888888888889E-01
      0.00000000000000E+00   0.00000000000000E+00   0.00000000000000E+00   0.00000000000000E+00  -4.85413793794353E-20
     -1.04559716672133E-15  -1.04564570810071E-15  -3.94593853264639E-15   0.00000000000000E+00   0.00000000000000E+00
      0.00000000000000E+00   0.00000000000000E+00  -1.83300412701175E-19   5.59252494290172E-25  -1.83299853448681E-19
      1.47062476848855E-15   8.03666666666667E-01   8.03666666666667E-01   0.00000000000000E+00   0.00000000000000E+00
      1.04579774292156E-15   3.12650325979168E-20   1.04582900795416E-15   2.36676587327541E-15   0.00000000000000E+00
      0.00000000000000E+00   0.00000000000000E+00   0.00000000000000E+00   0.00000000000000E+00   0.00000000000000E+00
      0.00000000000000E+00   1.08547890882434E-16
      2.92888888888889E-01
      0.00000000000000E+00   0.00000000000000E+00   0.00000000000000E+00   0.00000000000000E+00  -4.90442694566506E-20
     -1.06725758257305E-15  -1.06730662684251E-15  -4.01257976907413E-15   0.00000000000000E+00   0.00000000000000E+00
      0.00000000000000E+00   0.00000000000000E+00  -1.83527695198222E-19  -6.68879824013752E-25  -1.83528364078046E-19
      1.47062476848854E-15   8.78666666666667E-01   8.78666666666667E-01   0.00000000000000E+00   0.00000000000000E+00
      1.06745888458156E-15   3.12706250248835E-20   1.06749015520659E-15   2.43998990677527E-15   0.00000000000000E+00
      0.00000000000000E+00   0.00000000000000E+00   0.00000000000000E+00   0.00000000000000E+00   0.00000000000000E+00
      0.00000000000000E+00   1.01965093810317E-16
      3.17888888888889E-01
      0.00000000000000E+00   0.00000000000000E+00   0.00000000000000E+00   0.00000000000000E+00  -4.88681322494217E-20
     -1.08235403497296E-15  -1.08240290310521E-15  -4.07759828746817E-15   0.00000000000000E+00   0.00000000000000E+00
      0.00000000000000E+00   0.00000000000000E+00  -1.84036457638327E-19   4.45308300259079E-25  -1.84036012330027E-19
      1.47062476848853E-15   9.53666666666667E-01   9.53666666666667E-01   0.00000000000000E+00   0.00000000000000E+00
      1.08255566313958E-15   3.12759779606389E-20   1.08258693911754E-15   2.51161017012488E-15   0.00000000000000E+00
      0.00000000000000E+00   0.00000000000000E+00   0.00000000000000E+00   0.00000000000000E+00   0.00000000000000E+00
      0.00000000000000E+00   9.53633488547522E-17
      3.42888888888889E-01
      0.00000000000000E+00   0.00000000000000E+00   0.00000000000000E+00   0.00000000000000E+00  -4.90257561742977E-20
     -1.09449074161510E-15  -1.09453976737127E-15  -4.14154754006683E-15   0.00000000000000E+00   0.00000000000000E+00
      0.00000000000000E+00   0.00000000000000E+00  -1.84580062277181E-19  -1.07009290052314E-24  -1.84581132370082E-19
      1.47062476848852E-15   1.02866666666667E+00   1.02866666666667E+00   0.00000000000000E+00   0.00000000000000E+00
      1.09469306732177E-15   3.12811818664843E-20   1.09472434850364E-15   2.58217970477965E-15   0.00000000000000E+00
      0.00000000000000E+00   0.00000000000000E+00   0.00000000000000E+00   0.00000000000000E+00   0.00000000000000E+00
      0.00000000000000E+00   8.87430667986639E-17
      3.67888888888889E-01
      0.00000000000000E+00   0.00000000000000E+00   0.00000000000000E+00   0.00000000000000E+00  -4.91712500316627E-20
     -1.10440738950421E-15  -1.10445656075425E-15  -4.20479691372423E-15   0.00000000000000E+00   0.00000000000000E+00
      0.00000000000000E+00   0.00000000000000E+00  -1.84949222148689E-19   5.41292897810638E-25  -1.84948680855791E-19
      1.47062476848851E-15   1.10366666666667E+00   1.10366666666667E+00   0.00000000000000E+00   0.00000000000000E+00
      1.10461022297420E-15   3.12864609015678E-20   1.10464150943510E-15   2.65206759912366E-15   0.00000000000000E+00
      0.00000000000000E+00   0.00000000000000E+00   0.00000000000000E+00   0.00000000000000E+00   0.00000000000000E+00
      0.00000000000000E+00   8.21045461120657E-17
      3.92888888888889E-01
      0.00000000000000E+00   0.00000000000000E+00   0.00000000000000E+00   0.00000000000000E+00  -4.92099310596124E-20
     -1.11333800630225E-15  -1.11338721623331E-15  -4.26753231455671E-15   0.00000000000000E+00   0.00000000000000E+00
      0.00000000000000E+00   0.00000000000000E+00  -1.85407238638146E-19   3.69602887666415E-25  -1.85406869035258E-19
      1.47062476848851E-15   1.17866666666667E+00   1.17866666666667E+00   0.00000000000000E+00   0.00000000000000E+00
      1.11354133145417E-15   3.12916481730680E-20   1.11357262310234E-15   2.72145952728767E-15   0.00000000000000E+00
      0.00000000000000E+00   0.00000000000000E+00   0.00000000000000E+00   0.00000000000000E+00   0.00000000000000E+00
      0.00000000000000E+00   7.54480187805364E-17
      4.17888888888889E-01
      0.00000000000000E+00   0.00000000000000E+00   0.00000000000000E+00   0.00000000000000E+00  -4.93873484526311E-20
     -1.12157784038047E-15  -1.12162722772893E-15  -4.32982533598281E-15   0.00000000000000E+00   0.00000000000000E+00
      0.00000000000000E+00   0.00000000000000E+00  -1.85712693441141E-19   1.44502540135581E-25  -1.85712548938601E-19
      1.47062476848850E-15   1.25366666666667E+00   1.25366666666667E+00   0.00000000000000E+00   0.00000000000000E+00
      1.12178164338123E-15   3.12968966325353E-20   1.12181294027787E-15   2.79042685333505E-15   0.00000000000000E+00
      0.00000000000000E+00   0.00000000000000E+00   0.00000000000000E+00   0.00000000000000E+00   0.00000000000000E+00
      0.00000000000000E+00   6.87737141592680E-17
      4.42888888888889E-01
      0.00000000000000E+00   0.00000000000000E+00   0.00000000000000E+00   0.00000000000000E+00  -4.93483418885867E-20
     -1.13009043805529E-15  -1.13013978639718E-15  -4.39169213715443E-15   0.00000000000000E+00   0.00000000000000E+00
      0.00000000000000E+00   0.00000000000000E+00  -1.86221481470004E-19  -2.24988542360501E-25  -1.86221706458546E-19
      1.47062476848849E-15   1.32866666666667E+00   1.32866666666667E+00   0.00000000000000E+00   0.00000000000000E+00
      1.13029470575952E-15   3.13023441181514E-20   1.13032600810364E-15   2.85898545206169E-15   0.00000000000000E+00
      0.00000000000000E+00   0.00000000000000E+00   0.00000000000000E+00   0.00000000000000E+00   0.00000000000000E+00
      0.00000000000000E+00   6.20819166042551E-17
      4.67888888888889E-01
      0.00000000000000E+00   0.00000000000000E+00   0.00000000000000E+00   0.00000000000000E+00  -4.96688280864560E-20
     -1.14133760900216E-15  -1.14138727783025E-15  -4.45313117852411E-15   0.00000000000000E+00   0.00000000000000E+00
      0.00000000000000E+00   0.00000000000000E+00  -1.86353814395594E-19  -1.27793701878713E-24  -1.86355092332612E-19
      1.47062476848849E-15   1.40366666666667E+00   1.40366666666667E+00   0.00000000000000E+00   0.00000000000000E+00
      1.14154232496243E-15   3.13079601532449E-20   1.14157363292258E-15   2.92713341370429E-15   0.00000000000000E+00
      0.00000000000000E+00   0.00000000000000E+00   0.00000000000000E+00   0.00000000000000E+00   0.00000000000000E+00
      0.00000000000000E+00   5.53729963313326E-17
      4.92888888888889E-01
      0.00000000000000E+00   0.00000000000000E+00   0.00000000000000E+00   0.00000000000000E+00  -4.95330728911794E-20
     -1.15822990635928E-15  -1.15827943943217E-15  -4.51414500862114E-15   0.00000000000000E+00   0.00000000000000E+00
      0.00000000000000E+00   0.00000000000000E+00  -1.86927386233780E-19  -5.44718117416001E-25  -1.86927930951898E-19
      1.47062476848847E-15   1.47866666666667E+00   1.47866666666667E+00   0.00000000000000E+00   0.00000000000000E+00
      1.15843505396132E-15   3.13134017983236E-20   1.15846636736312E-15   2.99487283505351E-15   0.00000000000000E+00
      0.00000000000000E+00   0.00000000000000E+00   0.00000000000000E+00   0.00000000000000E+00   0.00000000000000E+00
      0.00000000000000E+00   4.86474050791478E-17
      5.17888888888889E-01
      0.00000000000000E+00   0.00000000000000E+00   0.00000000000000E+00   0.00000000000000E+00  -4.96111557013406E-20
     -1.18165326881944E-15  -1.18170287997514E-15  -4.57474747028169E-15   0.00000000000000E+00   0.00000000000000E+00
      0.00000000000000E+00   0.00000000000000E+00  -1.87274194156076E-19   1.02388242823014E-25  -1.87274091767833E-19
      1.47062476848846E-15   1.55366666666667E+00   1.55366666666667E+00   0.00000000000000E+00   0.00000000000000E+00
      1.18185883544841E-15   3.13186185078667E-20   1.18189015406691E-15   3.06221705651423E-15   0.00000000000000E+00
      0.00000000000000E+00   0.00000000000000E+00   0.00000000000000E+00   0.00000000000000E+00   0.00000000000000E+00
      0.00000000000000E+00   4.19056452790061E-17
      5.42888888888889E-01
      0.00000000000000E+00   0.00000000000000E+00   0.00000000000000E+00   0.00000000000000E+00  -4.96944787332982E-20
     -1.20912356419604E-15  -1.20917325867477E-15  -4.63495927108362E-15   0.00000000000000E+00   0.00000000000000E+00
      0.00000000000000E+00   0.00000000000000E+00  -1.87605730915755E-19  -5.01478370778558E-25  -1.87606232394126E-19
      1.47062476848844E-15   1.62866666666667E+00   1.62866666666667E+00   0.00000000000000E+00   0.00000000000000E+00
      1.20932954129455E-15   3.13236126192607E-20   1.20936086490717E-15   3.12918626887783E-15   0.00000000000000E+00
      0.00000000000000E+00   0.00000000000000E+00   0.00000000000000E+00   0.00000000000000E+00   0.00000000000000E+00
      0.00000000000000E+00   3.51482337173426E-17
      5.67888888888889E-01
      0.00000000000000E+00   0.00000000000000E+00   0.00000000000000E+00   0.00000000000000E+00  -4.96066250813388E-20
     -1.24036221775328E-15  -1.24041182437836E-15  -4.69480080607784E-15   0.00000000000000E+00   0.00000000000000E+00
      0.00000000000000E+00   0.00000000000000E+00  -1.88101512070328E-19   9.15748352894775E-25  -1.88100596321975E-19
      1.47062476848842E-15   1.70366666666667E+00   1.70366666666667E+00   0.00000000000000E+00   0.00000000000000E+00
      1.24056859656716E-15   3.13284075220916E-20   1.24059992497469E-15   3.19580035838083E-15   0.00000000000000E+00
      0.00000000000000E+00   0.00000000000000E+00   0.00000000000000E+00   0.00000000000000E+00   0.00000000000000E+00
      0.00000000000000E+00   2.83756792085899E-17
      5.92888888888889E-01
      0.00000000000000E+00   0.00000000000000E+00   0.00000000000000E+00   0.00000000000000E+00  -4.98532017915493E-20
     -1.28259897252578E-15  -1.28264882572757E-15  -4.75428741669286E-15   0.00000000000000E+00   0.00000000000000E+00
      0.00000000000000E+00   0.00000000000000E+00  -1.88259229492365E-19  -8.52829991542630E-25  -1.88260082322356E-19
      1.47062476848839E-15   1.77866666666667E+00   1.77866666666667E+00   0.00000000000000E+00   0.00000000000000E+00
      1.28280575278851E-15   3.13330213755910E-20   1.28283708580989E-15   3.26207416965288E-15   0.00000000000000E+00
      0.00000000000000E+00   0.00000000000000E+00   0.00000000000000E+00   0.00000000000000E+00   0.00000000000000E+00
      0.00000000000000E+00   2.15884785515806E-17
      6.17888888888889E-01
      0.00000000000000E+00   0.00000000000000E+00   0.00000000000000E+00   0.00000000000000E+00  -4.96997146151437E-20
     -1.34650087016735E-15  -1.34655056988197E-15  -4.81342523526386E-15   0.00000000000000E+00   0.00000000000000E+00
      0.00000000000000E+00   0.00000000000000E+00  -1.88774037825710E-19   3.73733260322360E-25  -1.88773664092450E-19
      1.47062476848845E-15   1.85366666666667E+00   1.85366666666667E+00   0.00000000000000E+00   0.00000000000000E+00
      1.34670801618584E-15   3.13273602179317E-20   1.34673934354606E-15   3.32801334442029E-15   0.00000000000000E+00
      0.00000000000000E+00   0.00000000000000E+00   0.00000000000000E+00   0.00000000000000E+00   0.00000000000000E+00
      0.00000000000000E+00   1.47871223551106E-17
      6.42888888888889E-01
      0.00000000000000E+00   0.00000000000000E+00   0.00000000000000E+00   0.00000000000000E+00  -4.97804226687515E-20
     -1.43093280957906E-15  -1.43098259000173E-15  -4.87220638577050E-15   0.00000000000000E+00   0.00000000000000E+00
      0.00000000000000E+00   0.00000000000000E+00  -1.89108394426174E-19   6.82470340860500E-25  -1.89107711955834E-19
      1.47062476848835E-15   1.92866666666667E+00   1.92866666666667E+00   0.00000000000000E+00   0.00000000000000E+00
      1.43114035652738E-15   3.13411863037999E-20   1.43117169771368E-15   3.39360951307202E-15   0.00000000000000E+00
      0.00000000000000E+00   0.00000000000000E+00   0.00000000000000E+00   0.00000000000000E+00   0.00000000000000E+00
      0.00000000000000E+00   7.97210421013909E-18
      6.67888888888889E-01
      0.00000000000000E+00   0.00000000000000E+00   0.00000000000000E+00   0.00000000000000E+00  -5.00048773739372E-20
     -1.51354915959754E-15  -1.51359916447492E-15  -4.93060483395048E-15   0.00000000000000E+00   0.00000000000000E+00
      0.00000000000000E+00   0.00000000000000E+00  -1.89271098347908E-19   2.70525786327846E-25  -1.89270827822121E-19
      1.47062476848835E-15   2.00366666666667E+00   2.00366666666667E+00   0.00000000000000E+00   0.00000000000000E+00
      1.51375708969204E-15   3.13456106968405E-20   1.51378843530274E-15   3.45883613322544E-15   0.00000000000000E+00
      0.00000000000000E+00   0.00000000000000E+00   0.00000000000000E+00   0.00000000000000E+00   0.00000000000000E+00
      0.00000000000000E+00   1.14393223669427E-18
      6.92888888888889E-01
      0.00000000000000E+00   0.00000000000000E+00   0.00000000000000E+00   0.00000000000000E+00  -5.00249338254749E-20
     -1.57429320275929E-15  -1.57434322769312E-15  -4.98857324978981E-15   0.00000000000000E+00   0.00000000000000E+00
      0.00000000000000E+00   0.00000000000000E+00  -1.89667275455899E-19   1.71938295969140E-25  -1.89667103517603E-19
      1.47062476848840E-15   2.07866666666667E+00   2.07866666666667E+00   0.00000000000000E+00   0.00000000000000E+00
      1.57450155083041E-15   3.13439662246479E-20   1.57453289479664E-15   3.52364533984306E-15   0.00000000000000E+00
      0.00000000000000E+00   0.00000000000000E+00   0.00000000000000E+00   0.00000000000000E+00   0.00000000000000E+00
      0.00000000000000E+00  -5.69685854164171E-18
      7.17888888888889E-01
      0.00000000000000E+00   0.00000000000000E+00   0.00000000000000E+00   0.00000000000000E+00  -4.99967137848440E-20
     -1.61200492604045E-15  -1.61205492275423E-15  -5.04603981275938E-15   0.00000000000000E+00   0.00000000000000E+00
      0.00000000000000E+00   0.00000000000000E+00  -1.90150528874960E-19   5.25004011333448E-26  -1.90150476374559E-19
      1.47062476848853E-15   2.15366666666667E+00   2.15366666666667E+00   0.00000000000000E+00   0.00000000000000E+00
      1.61221375341800E-15   3.13198126044972E-20   1.61224507323061E-15   3.58796474048777E-15   0.00000000000000E+00
      0.00000000000000E+00   0.00000000000000E+00   0.00000000000000E+00   0.00000000000000E+00   0.00000000000000E+00
      0.00000000000000E+00  -1.25496962169272E-17
      7.42888888888889E-01
      0.00000000000000E+00   0.00000000000000E+00   0.00000000000000E+00   0.00000000000000E+00  -5.01555676398167E-20
     -1.63321614942747E-15  -1.63326630499511E-15  -5.10290429778252E-15   0.00000000000000E+00   0.00000000000000E+00
      0.00000000000000E+00   0.00000000000000E+00  -1.90433103761524E-19  -6.62780834686969E-25  -1.90433766542358E-19
      1.47062476848881E-15   2.22866666666667E+00   2.22866666666667E+00   0.00000000000000E+00   0.00000000000000E+00
      1.63342540034984E-15   3.13384118087511E-20   1.63345673876165E-15   3.65169349569376E-15   0.00000000000000E+00
      0.00000000000000E+00   0.00000000000000E+00   0.00000000000000E+00   0.00000000000000E+00   0.00000000000000E+00
      0.00000000000000E+00  -1.94139664000455E-17
      7.67888888888889E-01
      0.00000000000000E+00   0.00000000000000E+00   0.00000000000000E+00   0.00000000000000E+00  -5.03217403868734E-20
     -1.64474867721614E-15  -1.64479899895652E-15  -5.15903484111053E-15   0.00000000000000E+00   0.00000000000000E+00
      0.00000000000000E+00   0.00000000000000E+00  -1.90710723497542E-19   4.72288979166109E-25  -1.90710251208563E-19
      1.47062476848818E-15   2.30366666666667E+00   2.30366666666667E+00   0.00000000000000E+00   0.00000000000000E+00
      1.64495834805346E-15   3.13611542666960E-20   1.64498970920773E-15   3.71469908369167E-15   0.00000000000000E+00
      0.00000000000000E+00   0.00000000000000E+00   0.00000000000000E+00   0.00000000000000E+00   0.00000000000000E+00
      0.00000000000000E+00  -2.62890110693172E-17
      7.92888888888889E-01
      0.00000000000000E+00   0.00000000000000E+00   0.00000000000000E+00   0.00000000000000E+00  -5.03894884237173E-20
     -1.65185523467020E-15  -1.65190562415863E-15  -5.21427080282029E-15   0.00000000000000E+00   0.00000000000000E+00
      0.00000000000000E+00   0.00000000000000E+00  -1.91072136060395E-19  -1.26097533652237E-25  -1.91072262157929E-19
      1.47062476848817E-15   2.37866666666667E+00   2.37866666666667E+00   0.00000000000000E+00   0.00000000000000E+00
      1.65206533179961E-15   3.13646211773972E-20   1.65209669642079E-15   3.77682016566076E-15   0.00000000000000E+00
      0.00000000000000E+00   0.00000000000000E+00   0.00000000000000E+00   0.00000000000000E+00   0.00000000000000E+00
      0.00000000000000E+00  -3.31741313286524E-17
      8.17888888888889E-01
      0.00000000000000E+00   0.00000000000000E+00   0.00000000000000E+00   0.00000000000000E+00  -5.03447772812008E-20
     -1.65764873372557E-15  -1.65769907850285E-15  -5.26844327481119E-15   0.00000000000000E+00   0.00000000000000E+00
      0.00000000000000E+00   0.00000000000000E+00  -1.91545985119183E-19   2.93471428628448E-25  -1.91545691647755E-19
      1.47062476848817E-15   2.45366666666667E+00   2.45366666666667E+00   0.00000000000000E+00   0.00000000000000E+00
      1.65785925625374E-15   3.13679407551523E-20   1.65789062419449E-15   3.83788710036871E-15   0.00000000000000E+00
      0.00000000000000E+00   0.00000000000000E+00   0.00000000000000E+00   0.00000000000000E+00   0.00000000000000E+00
      0.00000000000000E+00  -4.00685940456963E-17
      8.42888888888889E-01
      0.00000000000000E+00   0.00000000000000E+00   0.00000000000000E+00   0.00000000000000E+00  -5.04666784690001E-20
     -1.66398419660475E-15  -1.66403466328322E-15  -5.32142620026638E-15   0.00000000000000E+00   0.00000000000000E+00
      0.00000000000000E+00   0.00000000000000E+00  -1.91851309145829E-19   1.85566032804615E-25  -1.91851123579797E-19
      1.47062476848816E-15   2.52866666666667E+00   2.52866666666667E+00   0.00000000000000E+00   0.00000000000000E+00
      1.66419514329574E-15   3.13711110562326E-20   1.66422651440679E-15   3.89777307468755E-15   0.00000000000000E+00
      0.00000000000000E+00   0.00000000000000E+00   0.00000000000000E+00   0.00000000000000E+00   0.00000000000000E+00
      0.00000000000000E+00  -4.69716429093314E-17
      8.67888888888889E-01
      0.00000000000000E+00   0.00000000000000E+00   0.00000000000000E+00   0.00000000000000E+00  -5.06618926803663E-20