DF-ISE text

Info {
  version   = 1.0
  type      = xyplot
  datasets  = [
    "time"
    "substrate OuterVoltage" "substrate InnerVoltage" "substrate QuasiFermiPotential" "substrate DisplacementCurrent" "substrate eCurrent"
    "substrate hCurrent" "substrate TotalCurrent" "substrate Charge" "source OuterVoltage" "source InnerVoltage"
    "source QuasiFermiPotential" "source DisplacementCurrent" "source eCurrent" "source hCurrent" "source TotalCurrent"
    "source Charge" "drain OuterVoltage" "drain InnerVoltage" "drain QuasiFermiPotential" "drain DisplacementCurrent"
    "drain eCurrent" "drain hCurrent" "drain TotalCurrent" "drain Charge" "gate OuterVoltage"
    "gate InnerVoltage" "gate QuasiFermiPotential" "gate DisplacementCurrent" "gate eCurrent" "gate hCurrent"
    "gate TotalCurrent" "gate Charge" ]
  functions = [
    Time
    OuterVoltage InnerVoltage QuasiFermiPotential DisplacementCurrent eCurrent
    hCurrent TotalCurrent Charge OuterVoltage InnerVoltage
    QuasiFermiPotential DisplacementCurrent eCurrent hCurrent TotalCurrent
    Charge OuterVoltage InnerVoltage QuasiFermiPotential DisplacementCurrent
    eCurrent hCurrent TotalCurrent Charge OuterVoltage
    InnerVoltage QuasiFermiPotential DisplacementCurrent eCurrent hCurrent
    TotalCurrent Charge ]
}

Data {
      0.00000000000000E+00
      0.00000000000000E+00   0.00000000000000E+00   0.00000000000000E+00   0.00000000000000E+00   2.40321448747219E-23
      2.14341130672589E-26   2.40535789877892E-23  -2.61795924840720E-15   0.00000000000000E+00   0.00000000000000E+00
      0.00000000000000E+00   0.00000000000000E+00  -6.47477893120628E-24  -1.16011143799843E-26  -6.48638004558626E-24
      1.25594804610861E-15   0.00000000000000E+00   0.00000000000000E+00   0.00000000000000E+00   0.00000000000000E+00
     -1.75573658532532E-23  -9.83308894988272E-27  -1.75671989422031E-23   1.25594804610861E-15   0.00000000000000E+00
      0.00000000000000E+00   0.00000000000000E+00   0.00000000000000E+00   0.00000000000000E+00   0.00000000000000E+00
      0.00000000000000E+00   1.06063156189982E-16
      1.00000000000000E-02
      0.00000000000000E+00   0.00000000000000E+00   0.00000000000000E+00   0.00000000000000E+00   1.04352187349685E-18
     -2.63583555231354E-17  -2.53148336496385E-17  -2.64636462479623E-15   0.00000000000000E+00   0.00000000000000E+00
      0.00000000000000E+00   0.00000000000000E+00  -1.56643321164231E-19   1.32136803036016E-26  -1.56643307950550E-19
      1.25594804610851E-15   3.00000000000000E-02   3.00000000000000E-02   0.00000000000000E+00   0.00000000000000E+00
      2.54546910522511E-17   1.67859053379508E-20   2.54714769575891E-17   1.28739753817748E-15   0.00000000000000E+00
      0.00000000000000E+00   0.00000000000000E+00   0.00000000000000E+00   0.00000000000000E+00   0.00000000000000E+00
      0.00000000000000E+00   1.03019040510251E-16
      2.33333333333333E-02
      0.00000000000000E+00   0.00000000000000E+00   0.00000000000000E+00   0.00000000000000E+00   3.80513209365597E-18
     -4.95224804268276E-17  -4.57173483331716E-17  -2.68398019338315E-15   0.00000000000000E+00   0.00000000000000E+00
      0.00000000000000E+00   0.00000000000000E+00  -2.06381499518221E-19   8.12709042859188E-28  -2.06381498705512E-19
      1.25594804610836E-15   7.00000000000000E-02   7.00000000000000E-02   0.00000000000000E+00   0.00000000000000E+00
      4.59199293461063E-17   3.80048577085501E-21   4.59237298318771E-17   1.32907776208673E-15   0.00000000000000E+00
      0.00000000000000E+00   0.00000000000000E+00   0.00000000000000E+00   0.00000000000000E+00   0.00000000000000E+00
      0.00000000000000E+00   9.89543851880726E-17
      4.28888888888889E-02
      0.00000000000000E+00   0.00000000000000E+00   0.00000000000000E+00   0.00000000000000E+00  -3.83342306956857E-20
     -7.80327642163367E-17  -7.80710984470324E-17  -2.73865406490490E-15   0.00000000000000E+00   0.00000000000000E+00
      0.00000000000000E+00   0.00000000000000E+00  -2.13310343847113E-19   1.16919156053305E-26  -2.13310332155198E-19
      1.25594804610817E-15   1.28666666666667E-01   1.28666666666667E-01   0.00000000000000E+00   0.00000000000000E+00
      7.82564545080426E-17   2.79542711449777E-20   7.82844087791876E-17   1.38972523720336E-15   0.00000000000000E+00
      0.00000000000000E+00   0.00000000000000E+00   0.00000000000000E+00   0.00000000000000E+00   0.00000000000000E+00
      0.00000000000000E+00   9.29807815933625E-17
      6.78888888888889E-02
      0.00000000000000E+00   0.00000000000000E+00   0.00000000000000E+00   0.00000000000000E+00  -3.84287291898453E-20
     -1.22607655915965E-16  -1.22646084645154E-16  -2.80773620902552E-15   0.00000000000000E+00   0.00000000000000E+00
      0.00000000000000E+00   0.00000000000000E+00  -2.13142263464625E-19   2.65022057532120E-26  -2.13142236962419E-19
      1.25594804610790E-15   2.03666666666667E-01   2.03666666666667E-01   0.00000000000000E+00   0.00000000000000E+00
      1.22833636498568E-16   2.55903835485485E-20   1.22859226882117E-16   1.46646487326525E-15   0.00000000000000E+00
      0.00000000000000E+00   0.00000000000000E+00   0.00000000000000E+00   0.00000000000000E+00   0.00000000000000E+00
      0.00000000000000E+00   8.53232896523737E-17
      9.28888888888889E-02
      0.00000000000000E+00   0.00000000000000E+00   0.00000000000000E+00   0.00000000000000E+00  -3.80327520096749E-20
     -1.86868338644777E-16  -1.86906371396787E-16  -2.87593750955669E-15   0.00000000000000E+00   0.00000000000000E+00
      0.00000000000000E+00   0.00000000000000E+00  -2.14472605593250E-19  -1.72424754836826E-27  -2.14472607317497E-19
      1.25594804610758E-15   2.78666666666667E-01   2.78666666666667E-01   0.00000000000000E+00   0.00000000000000E+00
      1.87094940412533E-16   2.59035915716198E-20   1.87120844004104E-16   1.54234641882346E-15   0.00000000000000E+00
      0.00000000000000E+00   0.00000000000000E+00   0.00000000000000E+00   0.00000000000000E+00   0.00000000000000E+00
      0.00000000000000E+00   7.76430446256431E-17
      1.17888888888889E-01
      0.00000000000000E+00   0.00000000000000E+00   0.00000000000000E+00   0.00000000000000E+00  -3.97933142641657E-20
     -2.71816185912960E-16  -2.71855979227225E-16  -2.94326875949729E-15   0.00000000000000E+00   0.00000000000000E+00
      0.00000000000000E+00   0.00000000000000E+00  -2.16793316059173E-19  -3.68775516176396E-27  -2.16793319746928E-19
      1.25594804610723E-15   3.53666666666667E-01   3.53666666666667E-01   0.00000000000000E+00   0.00000000000000E+00
      2.72047074561467E-16   2.56979855047890E-20   2.72072772546972E-16   1.61737979170288E-15   0.00000000000000E+00
      0.00000000000000E+00   0.00000000000000E+00   0.00000000000000E+00   0.00000000000000E+00   0.00000000000000E+00
      0.00000000000000E+00   6.99409216871656E-17
      1.42888888888889E-01
      0.00000000000000E+00   0.00000000000000E+00   0.00000000000000E+00   0.00000000000000E+00  -2.15580003034761E-20
     -3.66452099016382E-16  -3.66473657016686E-16  -3.00969211165526E-15   0.00000000000000E+00   0.00000000000000E+00
      0.00000000000000E+00   0.00000000000000E+00  -2.15844423710842E-19  -2.35336607330669E-26  -2.15844447244503E-19
      1.25594804610685E-15   4.28666666666667E-01   4.28666666666667E-01   0.00000000000000E+00   0.00000000000000E+00
      3.66663802359860E-16   2.56991040695726E-20   3.66689501463930E-16   1.69152605668601E-15   0.00000000000000E+00
      0.00000000000000E+00   0.00000000000000E+00   0.00000000000000E+00   0.00000000000000E+00   0.00000000000000E+00
      0.00000000000000E+00   6.22180088623925E-17
      1.67888888888889E-01
      0.00000000000000E+00   0.00000000000000E+00   0.00000000000000E+00   0.00000000000000E+00  -3.86444661660564E-20
     -4.64645979404286E-16  -4.64684623870452E-16  -3.07509344247060E-15   0.00000000000000E+00   0.00000000000000E+00
      0.00000000000000E+00   0.00000000000000E+00  -2.16706392006289E-19  -2.55853188034813E-26  -2.16706417591608E-19
      1.25594804610645E-15   5.03666666666667E-01   5.03666666666667E-01   0.00000000000000E+00   0.00000000000000E+00
      4.64875627994443E-16   2.57022936011092E-20   4.64901330288044E-16   1.76466982896617E-15   0.00000000000000E+00
      0.00000000000000E+00   0.00000000000000E+00   0.00000000000000E+00   0.00000000000000E+00   0.00000000000000E+00
      0.00000000000000E+00   5.44755673979724E-17
      1.92888888888889E-01
      0.00000000000000E+00   0.00000000000000E+00   0.00000000000000E+00   0.00000000000000E+00  -3.83598785649345E-20
     -5.75015322908309E-16  -5.75053682786874E-16  -3.13926925848227E-15   0.00000000000000E+00   0.00000000000000E+00
      0.00000000000000E+00   0.00000000000000E+00  -2.17820849805638E-19  -1.99016962104401E-27  -2.17820851795807E-19
      1.25594804610601E-15   5.78666666666667E-01   5.78666666666667E-01   0.00000000000000E+00   0.00000000000000E+00
      5.75245969118461E-16   2.55345202079401E-20   5.75271503638668E-16   1.83660622655849E-15   0.00000000000000E+00
      0.00000000000000E+00   0.00000000000000E+00   0.00000000000000E+00   0.00000000000000E+00   0.00000000000000E+00
      0.00000000000000E+00   4.67149858177750E-17
      2.17888888888889E-01
      0.00000000000000E+00   0.00000000000000E+00   0.00000000000000E+00   0.00000000000000E+00  -3.86450447813779E-20
     -6.89282766631721E-16  -6.89321411676502E-16  -3.20193230642596E-15   0.00000000000000E+00   0.00000000000000E+00
      0.00000000000000E+00   0.00000000000000E+00  -2.18406452482006E-19   9.70411155029332E-27  -2.18406442777894E-19
      1.25594804610554E-15   6.53666666666667E-01   6.53666666666667E-01   0.00000000000000E+00   0.00000000000000E+00
      6.89514112078562E-16   2.57060407170639E-20   6.89539818119279E-16   1.90704653786225E-15   0.00000000000000E+00
      0.00000000000000E+00   0.00000000000000E+00   0.00000000000000E+00   0.00000000000000E+00   0.00000000000000E+00
      0.00000000000000E+00   3.89377224581650E-17
      2.42888888888889E-01
      0.00000000000000E+00   0.00000000000000E+00   0.00000000000000E+00   0.00000000000000E+00  -3.94346785458569E-20
     -7.70393979093613E-16  -7.70433413772158E-16  -3.26276317458171E-15   0.00000000000000E+00   0.00000000000000E+00
      0.00000000000000E+00   0.00000000000000E+00  -2.18543817975172E-19   7.36259776520253E-27  -2.18543810612575E-19
      1.25594804610507E-15   7.28666666666667E-01   7.28666666666666E-01   0.00000000000000E+00   0.00000000000000E+00
      7.70626253841089E-16   2.57037416808384E-20   7.70651957582770E-16   1.97566988463169E-15   0.00000000000000E+00
      0.00000000000000E+00   0.00000000000000E+00   0.00000000000000E+00   0.00000000000000E+00   0.00000000000000E+00
      0.00000000000000E+00   3.11452438449460E-17
      2.67888888888889E-01
      0.00000000000000E+00   0.00000000000000E+00   0.00000000000000E+00   0.00000000000000E+00  -3.86502630913376E-20
     -8.13697270939191E-16  -8.13735921202282E-16  -3.32155356811770E-15   0.00000000000000E+00   0.00000000000000E+00
      0.00000000000000E+00   0.00000000000000E+00  -2.20362901662394E-19  -1.03886312994272E-26  -2.20362912051025E-19
      1.25594804610459E-15   8.03666666666667E-01   8.03666666666667E-01   0.00000000000000E+00   0.00000000000000E+00
      8.13930632576645E-16   2.56515376874745E-20   8.13956284114333E-16   2.04226655711496E-15   0.00000000000000E+00
      0.00000000000000E+00   0.00000000000000E+00   0.00000000000000E+00   0.00000000000000E+00   0.00000000000000E+00
      0.00000000000000E+00   2.33389648981515E-17
      2.92888888888889E-01
      0.00000000000000E+00   0.00000000000000E+00   0.00000000000000E+00   0.00000000000000E+00  -3.97243771582809E-20
     -8.35139600624419E-16  -8.35179325001577E-16  -3.37839284206818E-15   0.00000000000000E+00   0.00000000000000E+00
      0.00000000000000E+00   0.00000000000000E+00  -2.19913311774358E-19  -3.09039492695437E-27  -2.19913314864753E-19
      1.25594804610410E-15   8.78666666666667E-01   8.78666666666667E-01   0.00000000000000E+00   0.00000000000000E+00
      8.35373519648247E-16   2.57186681944605E-20   8.35399238316441E-16   2.10692460107549E-15   0.00000000000000E+00
      0.00000000000000E+00   0.00000000000000E+00   0.00000000000000E+00   0.00000000000000E+00   0.00000000000000E+00
      0.00000000000000E+00   1.55201948886003E-17
      3.17888888888889E-01
      0.00000000000000E+00   0.00000000000000E+00   0.00000000000000E+00   0.00000000000000E+00  -3.96346476125532E-20
     -8.47696601704698E-16  -8.47736236352310E-16  -3.43367976382731E-15   0.00000000000000E+00   0.00000000000000E+00
      0.00000000000000E+00   0.00000000000000E+00  -2.20836459766949E-19   8.26395959327234E-27  -2.20836451502989E-19
      1.25594804610358E-15   9.53666666666667E-01   9.53666666666667E-01   0.00000000000000E+00   0.00000000000000E+00
      8.47931349961347E-16   2.57228424664189E-20   8.47957072803813E-16   2.17004162251078E-15   0.00000000000000E+00
      0.00000000000000E+00   0.00000000000000E+00   0.00000000000000E+00   0.00000000000000E+00   0.00000000000000E+00
      0.00000000000000E+00   7.69009521294884E-18
      3.42888888888889E-01
      0.00000000000000E+00   0.00000000000000E+00   0.00000000000000E+00   0.00000000000000E+00  -3.98329760831110E-20
     -8.56760306004822E-16  -8.56800138980905E-16  -3.48789890028284E-15   0.00000000000000E+00   0.00000000000000E+00
      0.00000000000000E+00   0.00000000000000E+00  -2.21449732422044E-19   8.19716362499089E-28  -2.21449731602328E-19
      1.25594804610304E-15   1.02866666666667E+00   1.02866666666667E+00   0.00000000000000E+00   0.00000000000000E+00
      8.56995861800561E-16   2.57269119460100E-20   8.57021588712507E-16   2.23210119994885E-15   0.00000000000000E+00
      0.00000000000000E+00   0.00000000000000E+00   0.00000000000000E+00   0.00000000000000E+00   0.00000000000000E+00
      0.00000000000000E+00  -1.50345769041072E-19
      3.67888888888889E-01
      0.00000000000000E+00   0.00000000000000E+00   0.00000000000000E+00   0.00000000000000E+00  -3.92867526717134E-20
     -8.64634387326228E-16  -8.64673674078900E-16  -3.54142020765418E-15   0.00000000000000E+00   0.00000000000000E+00
      0.00000000000000E+00   0.00000000000000E+00  -2.22786288199136E-19   4.40384179366380E-27  -2.22786283795294E-19
      1.25594804610246E-15   1.10366666666667E+00   1.10366666666667E+00   0.00000000000000E+00   0.00000000000000E+00
      8.64870729447857E-16   2.57309148390716E-20   8.64896460362696E-16   2.29347248265930E-15   0.00000000000000E+00
      0.00000000000000E+00   0.00000000000000E+00   0.00000000000000E+00   0.00000000000000E+00   0.00000000000000E+00
      0.00000000000000E+00  -8.00032110758032E-18
      3.92888888888889E-01
      0.00000000000000E+00   0.00000000000000E+00   0.00000000000000E+00   0.00000000000000E+00  -3.60466431716940E-20
     -8.73664801550318E-16  -8.73700848193490E-16  -3.59445963449404E-15   0.00000000000000E+00   0.00000000000000E+00
      0.00000000000000E+00   0.00000000000000E+00  -2.24135781324289E-19   1.32499611604839E-26  -2.24135768074328E-19
      1.25594804610181E-15   1.17866666666667E+00   1.17866666666667E+00   0.00000000000000E+00   0.00000000000000E+00
      8.73899250749870E-16   2.57332116946866E-20   8.73924983961565E-16   2.35437078824720E-15   0.00000000000000E+00
      0.00000000000000E+00   0.00000000000000E+00   0.00000000000000E+00   0.00000000000000E+00   0.00000000000000E+00
      0.00000000000000E+00  -1.58591998549625E-17
      4.17888888888889E-01
      0.00000000000000E+00   0.00000000000000E+00   0.00000000000000E+00   0.00000000000000E+00  -4.31003601772374E-20
     -8.86316950101663E-16  -8.86360050461841E-16  -3.64712227402843E-15   0.00000000000000E+00   0.00000000000000E+00
      0.00000000000000E+00   0.00000000000000E+00  -2.24162104142464E-19  -2.65667407179917E-28  -2.24162104408131E-19
      1.25594804610125E-15   1.25366666666667E+00   1.25366666666667E+00   0.00000000000000E+00   0.00000000000000E+00
      8.86558559022602E-16   2.56535436482585E-20   8.86584212566250E-16   2.41490073735348E-15   0.00000000000000E+00
      0.00000000000000E+00   0.00000000000000E+00   0.00000000000000E+00   0.00000000000000E+00   0.00000000000000E+00
      0.00000000000000E+00  -2.37265094262919E-17
      4.42888888888889E-01
      0.00000000000000E+00   0.00000000000000E+00   0.00000000000000E+00   0.00000000000000E+00  -4.06938962919188E-20
     -9.03822134330920E-16  -9.03862828227212E-16  -3.69945038613450E-15   0.00000000000000E+00   0.00000000000000E+00
      0.00000000000000E+00   0.00000000000000E+00  -2.24331533337636E-19  -1.37182666928662E-27  -2.24331534709463E-19
      1.25594804610055E-15   1.32866666666667E+00   1.32866666666667E+00   0.00000000000000E+00   0.00000000000000E+00
      9.04063935282745E-16   2.32244791773931E-20   9.04087159761922E-16   2.47510424619748E-15   0.00000000000000E+00
      0.00000000000000E+00   0.00000000000000E+00   0.00000000000000E+00   0.00000000000000E+00   0.00000000000000E+00
      0.00000000000000E+00  -3.16019061635258E-17
      4.67888888888889E-01
      0.00000000000000E+00   0.00000000000000E+00   0.00000000000000E+00   0.00000000000000E+00  -4.00611312784213E-20
     -9.24322353509102E-16  -9.24362414640381E-16  -3.75145573817015E-15   0.00000000000000E+00   0.00000000000000E+00
      0.00000000000000E+00   0.00000000000000E+00  -2.24996018351794E-19   7.05043491674457E-27  -2.24996011301360E-19
      1.25594804609976E-15   1.40366666666667E+00   1.40366666666667E+00   0.00000000000000E+00   0.00000000000000E+00
      9.24561663398526E-16   2.57472531564259E-20   9.24587410651682E-16   2.53499282872935E-15   0.00000000000000E+00
      0.00000000000000E+00   0.00000000000000E+00   0.00000000000000E+00   0.00000000000000E+00   0.00000000000000E+00
      0.00000000000000E+00  -3.94851366589569E-17
      4.92888888888889E-01
      0.00000000000000E+00   0.00000000000000E+00   0.00000000000000E+00   0.00000000000000E+00  -3.97259772731958E-20
     -9.43509999752154E-16  -9.43549725729427E-16  -3.80313909017495E-15   0.00000000000000E+00   0.00000000000000E+00
      0.00000000000000E+00   0.00000000000000E+00  -2.26038857061781E-19   3.16157597691327E-27  -2.26038853900205E-19
      1.25594804609898E-15   1.47866666666667E+00   1.47866666666667E+00   0.00000000000000E+00   0.00000000000000E+00
      9.43750013147166E-16   2.57514361610473E-20   9.43775764583327E-16   2.59456704152947E-15   0.00000000000000E+00
      0.00000000000000E+00   0.00000000000000E+00   0.00000000000000E+00   0.00000000000000E+00   0.00000000000000E+00
      0.00000000000000E+00  -4.73759974535059E-17
      5.17888888888889E-01
      0.00000000000000E+00   0.00000000000000E+00   0.00000000000000E+00   0.00000000000000E+00  -3.98063090513499E-20
     -9.58926244057480E-16  -9.58966050366531E-16  -3.85450125395413E-15   0.00000000000000E+00   0.00000000000000E+00
      0.00000000000000E+00   0.00000000000000E+00  -2.26649844785148E-19  -1.78562132103012E-26  -2.26649862641361E-19
      1.25594804609816E-15   1.55366666666667E+00   1.55366666666667E+00   0.00000000000000E+00   0.00000000000000E+00
      9.59166944786095E-16   2.57554430786253E-20   9.59192700229174E-16   2.65382751323034E-15   0.00000000000000E+00
      0.00000000000000E+00   0.00000000000000E+00   0.00000000000000E+00   0.00000000000000E+00   0.00000000000000E+00
      0.00000000000000E+00  -5.52743053743728E-17
      5.42888888888889E-01
      0.00000000000000E+00   0.00000000000000E+00   0.00000000000000E+00   0.00000000000000E+00  -3.95330850309927E-20
     -9.71924410008145E-16  -9.71963943093175E-16  -3.90554732547413E-15   0.00000000000000E+00   0.00000000000000E+00
      0.00000000000000E+00   0.00000000000000E+00  -2.27583193110463E-19   6.08719140836938E-27  -2.27583187023271E-19
      1.25594804609729E-15   1.62866666666667E+00   1.62866666666667E+00   0.00000000000000E+00   0.00000000000000E+00
      9.72165766999004E-16   2.57592811926290E-20   9.72191526280196E-16   2.71277916913574E-15   0.00000000000000E+00
      0.00000000000000E+00   0.00000000000000E+00   0.00000000000000E+00   0.00000000000000E+00   0.00000000000000E+00
      0.00000000000000E+00  -6.31798897589027E-17
      5.67888888888889E-01
      0.00000000000000E+00   0.00000000000000E+00   0.00000000000000E+00   0.00000000000000E+00  -3.93784105290655E-20
     -9.86593625314945E-16  -9.86633003725474E-16  -3.95628521822187E-15   0.00000000000000E+00   0.00000000000000E+00
      0.00000000000000E+00   0.00000000000000E+00  -2.28166024294718E-19   2.00360614800777E-27  -2.28166022291112E-19
      1.25594804609633E-15   1.70366666666667E+00   1.70366666666667E+00   0.00000000000000E+00   0.00000000000000E+00
      9.86835406814603E-16   2.57629331602477E-20   9.86861169747763E-16   2.77142977933846E-15   0.00000000000000E+00
      0.00000000000000E+00   0.00000000000000E+00   0.00000000000000E+00   0.00000000000000E+00   0.00000000000000E+00
      0.00000000000000E+00  -7.10926072129154E-17
      5.92888888888889E-01
      0.00000000000000E+00   0.00000000000000E+00   0.00000000000000E+00   0.00000000000000E+00  -3.98607157751495E-20
     -1.00988484417026E-15  -1.00992470488603E-15  -4.00672119624186E-15   0.00000000000000E+00   0.00000000000000E+00
      0.00000000000000E+00   0.00000000000000E+00  -2.28474250368559E-19  -1.82562499274330E-26  -2.28474268624809E-19
      1.25594804609540E-15   1.77866666666667E+00   1.77866666666667E+00   0.00000000000000E+00   0.00000000000000E+00
      1.01012741271121E-15   2.57664434475198E-20   1.01015317915466E-15   2.82978551365132E-15   0.00000000000000E+00
      0.00000000000000E+00   0.00000000000000E+00   0.00000000000000E+00   0.00000000000000E+00   0.00000000000000E+00
      0.00000000000000E+00  -7.90123635048584E-17
      6.17888888888889E-01
      0.00000000000000E+00   0.00000000000000E+00   0.00000000000000E+00   0.00000000000000E+00  -3.96485647790334E-20
     -1.05056091412644E-15  -1.05060056269122E-15  -4.05685536168118E-15   0.00000000000000E+00   0.00000000000000E+00
      0.00000000000000E+00   0.00000000000000E+00  -2.29364592256092E-19   3.76345371802192E-27  -2.29364588492639E-19
      1.25594804609438E-15   1.85366666666667E+00   1.85366666666667E+00   0.00000000000000E+00   0.00000000000000E+00
      1.05080415969485E-15   2.57675848673412E-20   1.05082992727971E-15   2.88784643370773E-15   0.00000000000000E+00
      0.00000000000000E+00   0.00000000000000E+00   0.00000000000000E+00   0.00000000000000E+00   0.00000000000000E+00
      0.00000000000000E+00  -8.69391181209304E-17
      6.42888888888889E-01
      0.00000000000000E+00   0.00000000000000E+00   0.00000000000000E+00   0.00000000000000E+00  -3.95482960930027E-20
     -1.11064906717824E-15  -1.11068861547433E-15  -4.10667834836956E-15   0.00000000000000E+00   0.00000000000000E+00
      0.00000000000000E+00   0.00000000000000E+00  -2.29833868800891E-19   2.75531497965280E-26  -2.29833841247742E-19
      1.25594804609329E-15   1.92866666666667E+00   1.92866666666667E+00   0.00000000000000E+00   0.00000000000000E+00
      1.11089269506498E-15   2.57542505990833E-20   1.11091844931558E-15   2.94560315438329E-15   0.00000000000000E+00
      0.00000000000000E+00   0.00000000000000E+00   0.00000000000000E+00   0.00000000000000E+00   0.00000000000000E+00
      0.00000000000000E+00  -9.48728521070318E-17
      6.67888888888889E-01
      0.00000000000000E+00   0.00000000000000E+00   0.00000000000000E+00   0.00000000000000E+00  -3.94661838823470E-20
     -1.17513970877905E-15  -1.17517917496293E-15  -4.15616889983911E-15   0.00000000000000E+00   0.00000000000000E+00
      0.00000000000000E+00   0.00000000000000E+00  -2.29553148890391E-19  -2.36574181957010E-28  -2.29553149126965E-19
      1.25594804609218E-15   2.00366666666667E+00   2.00366666666667E+00   0.00000000000000E+00   0.00000000000000E+00
      1.17538296577650E-15   2.57623355533811E-20   1.17540872811206E-15   3.00303434780197E-15   0.00000000000000E+00
      0.00000000000000E+00   0.00000000000000E+00   0.00000000000000E+00   0.00000000000000E+00   0.00000000000000E+00
      0.00000000000000E+00  -1.02813494055042E-16
      6.92888888888889E-01
      0.00000000000000E+00   0.00000000000000E+00   0.00000000000000E+00   0.00000000000000E+00  -3.77299313355139E-20
     -1.22598828007275E-15  -1.22602601000408E-15  -4.20529153495043E-15   0.00000000000000E+00   0.00000000000000E+00
      0.00000000000000E+00   0.00000000000000E+00  -2.31341229605771E-19  -1.94438810010292E-26  -2.31341249049652E-19
      1.25594804609106E-15   2.07866666666667E+00   2.07866666666667E+00   0.00000000000000E+00   0.00000000000000E+00
      1.22623157538208E-15   2.57758710558791E-20   1.22625735125313E-15   3.06010430228654E-15   0.00000000000000E+00
      0.00000000000000E+00   0.00000000000000E+00   0.00000000000000E+00   0.00000000000000E+00   0.00000000000000E+00
      0.00000000000000E+00  -1.10760813427164E-16
      7.17888888888889E-01
      0.00000000000000E+00   0.00000000000000E+00   0.00000000000000E+00   0.00000000000000E+00  -4.01640476329451E-20
     -1.26054327964809E-15  -1.26058344369572E-15  -4.25399369415642E-15   0.00000000000000E+00   0.00000000000000E+00
      0.00000000000000E+00   0.00000000000000E+00  -2.31379547952279E-19   8.26902513253965E-28  -2.31379547125377E-19
      1.25594804608998E-15   2.15366666666667E+00   2.15366666666667E+00   0.00000000000000E+00   0.00000000000000E+00
      1.26078904098342E-15   2.57822594362427E-20   1.26081482324285E-15   3.11675994686550E-15   0.00000000000000E+00
      0.00000000000000E+00   0.00000000000000E+00   0.00000000000000E+00   0.00000000000000E+00   0.00000000000000E+00
      0.00000000000000E+00  -1.18714298799062E-16
      7.42888888888889E-01
      0.00000000000000E+00   0.00000000000000E+00   0.00000000000000E+00   0.00000000000000E+00  -4.00530290520873E-20
     -1.28358569125247E-15  -1.28362574428152E-15  -4.30220228974988E-15   0.00000000000000E+00   0.00000000000000E+00
      0.00000000000000E+00   0.00000000000000E+00  -2.32323685056471E-19  -1.35254677493958E-26  -2.32323698581939E-19
      1.25594804608903E-15   2.22866666666667E+00   2.22866666666667E+00   0.00000000000000E+00   0.00000000000000E+00
      1.28383228250241E-15   2.57854776962206E-20   1.28385806798010E-15   3.17292728293911E-15   0.00000000000000E+00
      0.00000000000000E+00   0.00000000000000E+00   0.00000000000000E+00   0.00000000000000E+00   0.00000000000000E+00
      0.00000000000000E+00  -1.26673039278261E-16
      7.67888888888889E-01
      0.00000000000000E+00   0.00000000000000E+00   0.00000000000000E+00   0.00000000000000E+00  -4.05874264647531E-20
     -1.29907459040592E-15  -1.29911517783238E-15  -4.34982071564998E-15   0.00000000000000E+00   0.00000000000000E+00
      0.00000000000000E+00   0.00000000000000E+00  -2.32599628144359E-19  -1.77679216671952E-26  -2.32599645912281E-19
      1.25594804608686E-15   2.30366666666667E+00   2.30366666666667E+00   0.00000000000000E+00   0.00000000000000E+00
      1.29932198913386E-15   2.57883444373624E-20   1.29934777747830E-15   3.22850829219059E-15   0.00000000000000E+00
      0.00000000000000E+00   0.00000000000000E+00   0.00000000000000E+00   0.00000000000000E+00   0.00000000000000E+00
      0.00000000000000E+00  -1.34635622627471E-16
      7.92888888888889E-01
      0.00000000000000E+00   0.00000000000000E+00   0.00000000000000E+00   0.00000000000000E+00  -4.08079625028404E-20
     -1.31033275425522E-15  -1.31037356221772E-15  -4.39672986600707E-15   0.00000000000000E+00   0.00000000000000E+00
      0.00000000000000E+00   0.00000000000000E+00  -2.33067067345546E-19  -5.59719703764070E-27  -2.33067072942743E-19
      1.25594804608541E-15   2.37866666666667E+00   2.37866666666667E+00   0.00000000000000E+00   0.00000000000000E+00
      1.31058083824066E-15   2.57910500017644E-20   1.31060662929066E-15   3.28338187890110E-15   0.00000000000000E+00
      0.00000000000000E+00   0.00000000000000E+00   0.00000000000000E+00   0.00000000000000E+00   0.00000000000000E+00
      0.00000000000000E+00  -1.42600058979442E-16
      8.17888888888889E-01
      0.00000000000000E+00   0.00000000000000E+00   0.00000000000000E+00   0.00000000000000E+00  -4.05763169787076E-20
     -1.31976870951534E-15  -1.31980928583232E-15  -4.44280098040710E-15   0.00000000000000E+00   0.00000000000000E+00
      0.00000000000000E+00   0.00000000000000E+00  -2.33985010248949E-19  -3.07381984717597E-27  -2.33985013322769E-19
      1.25594804608389E-15   2.45366666666667E+00   2.45366666666667E+00   0.00000000000000E+00   0.00000000000000E+00
      1.32001747720251E-15   2.57936431337853E-20   1.32004327084564E-15   3.33741667469852E-15   0.00000000000000E+00
      0.00000000000000E+00   0.00000000000000E+00   0.00000000000000E+00   0.00000000000000E+00   0.00000000000000E+00
      0.00000000000000E+00  -1.50563740375308E-16
      8.42888888888889E-01
      0.00000000000000E+00   0.00000000000000E+00   0.00000000000000E+00   0.00000000000000E+00  -4.00516475361825E-20
     -1.32855940852858E-15  -1.32859946017612E-15  -4.48793025726156E-15   0.00000000000000E+00   0.00000000000000E+00
      0.00000000000000E+00   0.00000000000000E+00  -2.35191434847006E-19   1.03766759240854E-26  -2.35191424470330E-19
      1.25594804608231E-15   2.52866666666667E+00   2.52866666666667E+00   0.00000000000000E+00   0.00000000000000E+00
      1.32880885547962E-15   2.57961209728748E-20   1.32883465160059E-15   3.39050567051403E-15   0.00000000000000E+00
      0.00000000000000E+00   0.00000000000000E+00   0.00000000000000E+00   0.00000000000000E+00   0.00000000000000E+00
      0.00000000000000E+00  -1.58523459334792E-16
      8.67888888888889E-01
      0.00000000000000E+00   0.00000000000000E+00   0.00000000000000E+00   0.00000000000000E+00  -4.06217102598543E-20