DF-ISE text

Info {
  version   = 1.0
  type      = xyplot
  datasets  = [
    "time"
    "substrate OuterVoltage" "substrate InnerVoltage" "substrate QuasiFermiPotential" "substrate DisplacementCurrent" "substrate eCurrent"
    "substrate hCurrent" "substrate TotalCurrent" "substrate Charge" "source OuterVoltage" "source InnerVoltage"
    "source QuasiFermiPotential" "source DisplacementCurrent" "source eCurrent" "source hCurrent" "source TotalCurrent"
    "source Charge" "drain OuterVoltage" "drain InnerVoltage" "drain QuasiFermiPotential" "drain DisplacementCurrent"
    "drain eCurrent" "drain hCurrent" "drain TotalCurrent" "drain Charge" "gate OuterVoltage"
    "gate InnerVoltage" "gate QuasiFermiPotential" "gate DisplacementCurrent" "gate eCurrent" "gate hCurrent"
    "gate TotalCurrent" "gate Charge" ]
  functions = [
    Time
    OuterVoltage InnerVoltage QuasiFermiPotential DisplacementCurrent eCurrent
    hCurrent TotalCurrent Charge OuterVoltage InnerVoltage
    QuasiFermiPotential DisplacementCurrent eCurrent hCurrent TotalCurrent
    Charge OuterVoltage InnerVoltage QuasiFermiPotential DisplacementCurrent
    eCurrent hCurrent TotalCurrent Charge OuterVoltage
    InnerVoltage QuasiFermiPotential DisplacementCurrent eCurrent hCurrent
    TotalCurrent Charge ]
}

Data {
      0.00000000000000E+00
      0.00000000000000E+00   0.00000000000000E+00   0.00000000000000E+00   0.00000000000000E+00  -1.80950624718195E-18
      1.50217561125910E-27  -1.80950624567978E-18  -4.90985442274274E-15   0.00000000000000E+00   0.00000000000000E+00
      0.00000000000000E+00   0.00000000000000E+00   9.03995786842905E-19  -9.65723940855578E-28   9.03995785877181E-19
      1.86889738855596E-15   0.00000000000000E+00   0.00000000000000E+00   0.00000000000000E+00   0.00000000000000E+00
      9.05510460339035E-19  -5.36437914269722E-28   9.05510459802597E-19   1.86889738855596E-15   1.00000000000000E+00
      1.00000000000000E+00   0.00000000000000E+00   0.00000000000000E+00   0.00000000000000E+00   0.00000000000000E+00
      0.00000000000000E+00   1.17205964563082E-15
      1.00000000000000E-02
      0.00000000000000E+00   0.00000000000000E+00   0.00000000000000E+00   0.00000000000000E+00   1.82289307033020E-16
     -2.76728611814778E-17   1.54616445851542E-16  -4.95326692966897E-15   0.00000000000000E+00   0.00000000000000E+00
      0.00000000000000E+00   0.00000000000000E+00  -5.34784099183346E-17  -1.64144535082696E-27  -5.34784099199761E-17
      1.86889738855593E-15   3.00000000000000E-02   3.00000000000000E-02   0.00000000000000E+00   0.00000000000000E+00
     -1.01166841656977E-16   2.88057254101971E-20  -1.01138035931566E-16   1.91506050479084E-15   1.00000000000000E+00
      1.00000000000000E+00   0.00000000000000E+00   0.00000000000000E+00   0.00000000000000E+00   0.00000000000000E+00
      0.00000000000000E+00   1.16930903632218E-15
      2.33333333333333E-02
      0.00000000000000E+00   0.00000000000000E+00   0.00000000000000E+00   0.00000000000000E+00  -1.51204563113211E-18
     -5.75050722816191E-17  -5.90171179127512E-17  -5.01099286645455E-15   0.00000000000000E+00   0.00000000000000E+00
      0.00000000000000E+00   0.00000000000000E+00  -7.23486910057376E-17  -2.78851734733873E-30  -7.23486910057404E-17
      1.86889738855591E-15   7.00000000000000E-02   7.00000000000000E-02   0.00000000000000E+00   0.00000000000000E+00
      1.31342537743075E-16   2.32711754163695E-20   1.31365808918491E-16   1.97637436263532E-15   1.00000000000000E+00
      1.00000000000000E+00   0.00000000000000E+00   0.00000000000000E+00   0.00000000000000E+00   0.00000000000000E+00
      0.00000000000000E+00   1.16572111526332E-15
      4.24444444444445E-02
      0.00000000000000E+00   0.00000000000000E+00   0.00000000000000E+00   0.00000000000000E+00   3.43694705070021E-18
     -1.03657256833420E-16  -1.00220309782720E-16  -5.09337257238226E-15   0.00000000000000E+00   0.00000000000000E+00
      0.00000000000000E+00   0.00000000000000E+00  -7.68105466873366E-17  -3.59128148592559E-27  -7.68105466909279E-17
      1.86889738855588E-15   1.27333333333333E-01   1.27333333333333E-01   0.00000000000000E+00   0.00000000000000E+00
      1.76969815602594E-16   6.10408710535441E-20   1.77030856473648E-16   2.06378276755440E-15   1.00000000000000E+00
      1.00000000000000E+00   0.00000000000000E+00   0.00000000000000E+00   0.00000000000000E+00   0.00000000000000E+00
      0.00000000000000E+00   1.16069241627197E-15
      6.74444444444444E-02
      0.00000000000000E+00   0.00000000000000E+00   0.00000000000000E+00   0.00000000000000E+00  -9.26412004649496E-19
     -1.80184455221994E-16  -1.81110867226643E-16  -5.20034100643635E-15   0.00000000000000E+00   0.00000000000000E+00
      0.00000000000000E+00   0.00000000000000E+00  -7.41299253326969E-17   5.38952483289275E-28  -7.41299253321579E-17
      1.86889738855583E-15   2.02333333333333E-01   2.02333333333333E-01   0.00000000000000E+00   0.00000000000000E+00
      2.55191502592278E-16   4.92899665228355E-20   2.55240792558801E-16   2.17720209479202E-15   1.00000000000000E+00
      1.00000000000000E+00   0.00000000000000E+00   0.00000000000000E+00   0.00000000000000E+00   0.00000000000000E+00
      0.00000000000000E+00   1.15424152308849E-15
      9.24444444444444E-02
      0.00000000000000E+00   0.00000000000000E+00   0.00000000000000E+00   0.00000000000000E+00   1.58051003790214E-19
     -2.79721561707486E-16  -2.79563510703695E-16  -5.30621632034254E-15   0.00000000000000E+00   0.00000000000000E+00
      0.00000000000000E+00   0.00000000000000E+00  -7.59829391351892E-17  -1.75855483420067E-27  -7.59829391369477E-17
      1.86889738855577E-15   2.77333333333333E-01   2.77333333333333E-01   0.00000000000000E+00   0.00000000000000E+00
      3.55504110274914E-16   4.23395657294793E-20   3.55546449840643E-16   2.28942888858795E-15   1.00000000000000E+00
      1.00000000000000E+00   0.00000000000000E+00   0.00000000000000E+00   0.00000000000000E+00   0.00000000000000E+00
      0.00000000000000E+00   1.14789004319881E-15
      1.17444444444444E-01
      0.00000000000000E+00   0.00000000000000E+00   0.00000000000000E+00   0.00000000000000E+00   5.59437346059678E-18
     -4.06136298158724E-16  -4.00541924698128E-16  -5.41080281243294E-15   0.00000000000000E+00   0.00000000000000E+00
      0.00000000000000E+00   0.00000000000000E+00  -7.66232480217470E-17  -4.19182860234904E-27  -7.66232480259389E-17
      1.86889738855570E-15   3.52333333333333E-01   3.52333333333333E-01   0.00000000000000E+00   0.00000000000000E+00
      4.77206256550113E-16  -4.10838260461514E-20   4.77165172724066E-16   2.40027153006208E-15   1.00000000000000E+00
      1.00000000000000E+00   0.00000000000000E+00   0.00000000000000E+00   0.00000000000000E+00   0.00000000000000E+00
      0.00000000000000E+00   1.14163389381515E-15
      1.42444444444444E-01
      0.00000000000000E+00   0.00000000000000E+00   0.00000000000000E+00   0.00000000000000E+00   2.26658627986856E-17
     -5.62978007961574E-16  -5.40312145162888E-16  -5.51386376093394E-15   0.00000000000000E+00   0.00000000000000E+00
      0.00000000000000E+00   0.00000000000000E+00  -7.68631710749330E-17   2.31611551167999E-27  -7.68631710726168E-17
      1.86889738855561E-15   4.27333333333333E-01   4.27333333333333E-01   0.00000000000000E+00   0.00000000000000E+00
      6.17191367848686E-16  -1.60516131811886E-20   6.17175316235505E-16   2.50947773580142E-15   1.00000000000000E+00
      1.00000000000000E+00   0.00000000000000E+00   0.00000000000000E+00   0.00000000000000E+00   0.00000000000000E+00
      0.00000000000000E+00   1.13548863657689E-15
      1.67444444444444E-01
      0.00000000000000E+00   0.00000000000000E+00   0.00000000000000E+00   0.00000000000000E+00   4.37561177230838E-17
     -7.61726365992462E-16  -7.17970248269378E-16  -5.61507427501216E-15   0.00000000000000E+00   0.00000000000000E+00
      0.00000000000000E+00   0.00000000000000E+00  -7.66351669176053E-17   2.59560527686453E-27  -7.66351669150097E-17
      1.86889738855551E-15   5.02333333333333E-01   5.02333333333333E-01   0.00000000000000E+00   0.00000000000000E+00
      7.94578276821650E-16   2.71383627377838E-20   7.94605415184388E-16   2.61670810244289E-15   1.00000000000000E+00
      1.00000000000000E+00   0.00000000000000E+00   0.00000000000000E+00   0.00000000000000E+00   0.00000000000000E+00
      0.00000000000000E+00   1.12946878401375E-15
      1.92444444444444E-01
      0.00000000000000E+00   0.00000000000000E+00   0.00000000000000E+00   0.00000000000000E+00   3.85266378631895E-18
     -1.00603920554962E-15  -1.00218654176330E-15  -5.71400094017738E-15   0.00000000000000E+00   0.00000000000000E+00
      0.00000000000000E+00   0.00000000000000E+00  -8.02039784924271E-17   2.91196826188949E-27  -8.02039784895151E-17
      1.86889738855539E-15   5.77333333333333E-01   5.77333333333333E-01   0.00000000000000E+00   0.00000000000000E+00
      1.08225530309253E-15   1.35217160282135E-19   1.08239052025281E-15   2.72153432468370E-15   1.00000000000000E+00
      1.00000000000000E+00   0.00000000000000E+00   0.00000000000000E+00   0.00000000000000E+00   0.00000000000000E+00
      0.00000000000000E+00   1.12356922693831E-15
      2.17444444444444E-01
      0.00000000000000E+00   0.00000000000000E+00   0.00000000000000E+00   0.00000000000000E+00   1.90651906468478E-18
     -1.23789007317861E-15  -1.23598355411392E-15  -5.81012492024360E-15   0.00000000000000E+00   0.00000000000000E+00
      0.00000000000000E+00   0.00000000000000E+00  -7.86149867749151E-17  -7.58228882088717E-28  -7.86149867756734E-17
      1.86889738855527E-15   6.52333333333333E-01   6.52333333333333E-01   0.00000000000000E+00   0.00000000000000E+00
      1.31455652827653E-15   4.20126130660933E-20   1.31459854088960E-15   2.82346792758809E-15   1.00000000000000E+00
      1.00000000000000E+00   0.00000000000000E+00   0.00000000000000E+00   0.00000000000000E+00   0.00000000000000E+00
      0.00000000000000E+00   1.11775960410025E-15
      2.42444444444444E-01
      0.00000000000000E+00   0.00000000000000E+00   0.00000000000000E+00   0.00000000000000E+00   2.11998814663424E-18
     -1.39367409484533E-15  -1.39155410669870E-15  -5.90296443045704E-15   0.00000000000000E+00   0.00000000000000E+00
      0.00000000000000E+00   0.00000000000000E+00  -7.89764884318830E-17  -2.55113236219888E-27  -7.89764884344341E-17
      1.86889738855518E-15   7.27333333333333E-01   7.27333333333333E-01   0.00000000000000E+00   0.00000000000000E+00
      1.47038564177615E-15   1.44953356985245E-19   1.47053059513313E-15   2.92206636097754E-15   1.00000000000000E+00
      1.00000000000000E+00   0.00000000000000E+00   0.00000000000000E+00   0.00000000000000E+00   0.00000000000000E+00
      0.00000000000000E+00   1.11200068092432E-15
      2.67444444444444E-01
      0.00000000000000E+00   0.00000000000000E+00   0.00000000000000E+00   0.00000000000000E+00   2.68416947584674E-18
     -1.48263058529458E-15  -1.47994641581873E-15  -5.99234632301058E-15   0.00000000000000E+00   0.00000000000000E+00
      0.00000000000000E+00   0.00000000000000E+00  -7.97310265298308E-17  -4.95722615173216E-28  -7.97310265303265E-17
      1.86889738855513E-15   8.02333333333333E-01   8.02333333333333E-01   0.00000000000000E+00   0.00000000000000E+00
      1.55962535196072E-15   5.20903883378997E-20   1.55967744234906E-15   3.01718637754819E-15   1.00000000000000E+00
      1.00000000000000E+00   0.00000000000000E+00   0.00000000000000E+00   0.00000000000000E+00   0.00000000000000E+00
      0.00000000000000E+00   1.10626255690728E-15
      2.92444444444444E-01
      0.00000000000000E+00   0.00000000000000E+00   0.00000000000000E+00   0.00000000000000E+00  -1.47806417839189E-18
     -1.53431302791805E-15  -1.53579109209644E-15  -6.07864583206089E-15   0.00000000000000E+00   0.00000000000000E+00
      0.00000000000000E+00   0.00000000000000E+00  -7.57356414747597E-17   2.25653107192090E-28  -7.57356414745341E-17
      1.86889738855509E-15   8.77333333333333E-01   8.77333333333333E-01   0.00000000000000E+00   0.00000000000000E+00
      1.61148427170549E-15   4.24618654806635E-20   1.61152673357097E-15   3.10922001002696E-15   1.00000000000000E+00
      1.00000000000000E+00   0.00000000000000E+00   0.00000000000000E+00   0.00000000000000E+00   0.00000000000000E+00
      0.00000000000000E+00   1.10052843347886E-15
      3.17444444444444E-01
      0.00000000000000E+00   0.00000000000000E+00   0.00000000000000E+00   0.00000000000000E+00  -4.65061831604899E-19
     -1.56350284561928E-15  -1.56396790745089E-15  -6.16265859197626E-15   0.00000000000000E+00   0.00000000000000E+00
      0.00000000000000E+00   0.00000000000000E+00  -7.68961675409130E-17  -1.37830098228530E-27  -7.68961675422913E-17
      1.86889738855506E-15   9.52333333333333E-01   9.52333333333333E-01   0.00000000000000E+00   0.00000000000000E+00
      1.64082062712863E-15   4.34478645449857E-20   1.64086407499318E-15   3.19897083398923E-15   1.00000000000000E+00
      1.00000000000000E+00   0.00000000000000E+00   0.00000000000000E+00   0.00000000000000E+00   0.00000000000000E+00
      0.00000000000000E+00   1.09479036943197E-15
      3.42444444444444E-01
      0.00000000000000E+00   0.00000000000000E+00   0.00000000000000E+00   0.00000000000000E+00  -1.51757952213063E-19
     -1.58115856423078E-15  -1.58131032218299E-15  -6.24519067387930E-15   0.00000000000000E+00   0.00000000000000E+00
      0.00000000000000E+00   0.00000000000000E+00  -7.73428368926880E-17  -3.14157828742744E-27  -7.73428368958296E-17
      1.86889738855504E-15   1.02733333333333E+00   1.02733333333333E+00   0.00000000000000E+00   0.00000000000000E+00
      1.65841351293459E-15   2.39646144231541E-19   1.65865315907882E-15   3.28724828708185E-15   1.00000000000000E+00
      1.00000000000000E+00   0.00000000000000E+00   0.00000000000000E+00   0.00000000000000E+00   0.00000000000000E+00
      0.00000000000000E+00   1.08904499824240E-15
      3.67444444444445E-01
      0.00000000000000E+00   0.00000000000000E+00   0.00000000000000E+00   0.00000000000000E+00  -6.69521970245018E-21
     -1.59495420968285E-15  -1.59496090490255E-15  -6.32679917575615E-15   0.00000000000000E+00   0.00000000000000E+00
      0.00000000000000E+00   0.00000000000000E+00  -7.76614166238347E-17  -3.02492107223934E-28  -7.76614166241372E-17
      1.86889738855502E-15   1.10233333333333E+00   1.10233333333333E+00   0.00000000000000E+00   0.00000000000000E+00
      1.67255180715886E-15   7.05143678257291E-20   1.67262232152669E-15   3.37461073334308E-15   1.00000000000000E+00
      1.00000000000000E+00   0.00000000000000E+00   0.00000000000000E+00   0.00000000000000E+00   0.00000000000000E+00
      0.00000000000000E+00   1.08329105385805E-15
      3.92444444444445E-01
      0.00000000000000E+00   0.00000000000000E+00   0.00000000000000E+00   0.00000000000000E+00  -7.75516759735178E-19
     -1.60912174270064E-15  -1.60989725946037E-15  -6.40779152847592E-15   0.00000000000000E+00   0.00000000000000E+00
      0.00000000000000E+00   0.00000000000000E+00  -7.70304487537936E-17   5.65366389896071E-28  -7.70304487532282E-17
      1.86889738855500E-15   1.17733333333333E+00   1.17733333333333E+00   0.00000000000000E+00   0.00000000000000E+00
      1.68688521705247E-15   4.24911611292608E-20   1.68692770821360E-15   3.46136596340470E-15   1.00000000000000E+00
      1.00000000000000E+00   0.00000000000000E+00   0.00000000000000E+00   0.00000000000000E+00   0.00000000000000E+00
      0.00000000000000E+00   1.07752817651621E-15
      4.17444444444445E-01
      0.00000000000000E+00   0.00000000000000E+00   0.00000000000000E+00   0.00000000000000E+00  -2.10093649917490E-18
     -1.62389994956605E-15  -1.62600088606523E-15  -6.48831624789785E-15   0.00000000000000E+00   0.00000000000000E+00
      0.00000000000000E+00   0.00000000000000E+00  -7.58519900839307E-17  -1.66259262147165E-27  -7.58519900855933E-17
      1.86889738855498E-15   1.25233333333333E+00   1.25233333333333E+00   0.00000000000000E+00   0.00000000000000E+00
      1.70181037766118E-15   4.24984896328319E-20   1.70185287615082E-15   3.54766249640622E-15   1.00000000000000E+00
      1.00000000000000E+00   0.00000000000000E+00   0.00000000000000E+00   0.00000000000000E+00   0.00000000000000E+00
      0.00000000000000E+00   1.07175636293665E-15
      4.42444444444445E-01
      0.00000000000000E+00   0.00000000000000E+00   0.00000000000000E+00   0.00000000000000E+00   9.02165160038665E-19
     -1.63985495699962E-15  -1.63895279183958E-15  -6.56843770255812E-15   0.00000000000000E+00   0.00000000000000E+00
      0.00000000000000E+00   0.00000000000000E+00  -7.90007550112210E-17   6.13527028926958E-28  -7.90007550106074E-17
      1.86889738855496E-15   1.32733333333333E+00   1.32733333333333E+00   0.00000000000000E+00   0.00000000000000E+00
      1.71791104075725E-15   4.25060929398802E-20   1.71795354685019E-15   3.63356462092906E-15   1.00000000000000E+00
      1.00000000000000E+00   0.00000000000000E+00   0.00000000000000E+00   0.00000000000000E+00   0.00000000000000E+00
      0.00000000000000E+00   1.06597569307410E-15
      4.67444444444445E-01
      0.00000000000000E+00   0.00000000000000E+00   0.00000000000000E+00   0.00000000000000E+00  -1.76539322444160E-18
     -1.65800005153312E-15  -1.65976544475757E-15  -6.64817754125524E-15   0.00000000000000E+00   0.00000000000000E+00
      0.00000000000000E+00   0.00000000000000E+00  -7.64776798143363E-17  -1.66851803961209E-27  -7.64776798160048E-17
      1.86889738855493E-15   1.40233333333333E+00   1.40233333333333E+00   0.00000000000000E+00   0.00000000000000E+00
      1.73620061065192E-15   4.25139216430436E-20   1.73624312457357E-15   3.71909398646143E-15   1.00000000000000E+00
      1.00000000000000E+00   0.00000000000000E+00   0.00000000000000E+00   0.00000000000000E+00   0.00000000000000E+00
      0.00000000000000E+00   1.06018616623887E-15
      4.92444444444445E-01
      0.00000000000000E+00   0.00000000000000E+00   0.00000000000000E+00   0.00000000000000E+00  -4.28457807757967E-19
     -1.67834906443442E-15  -1.67877752224218E-15  -6.72753436171753E-15   0.00000000000000E+00   0.00000000000000E+00
      0.00000000000000E+00   0.00000000000000E+00  -7.79580171407925E-17   1.37164531523072E-27  -7.79580171394208E-17
      1.86889738855491E-15   1.47733333333333E+00   1.47733333333333E+00   0.00000000000000E+00   0.00000000000000E+00
      1.75669301782102E-15   4.25215605873020E-20   1.75673553938160E-15   3.80424936462167E-15   1.00000000000000E+00
      1.00000000000000E+00   0.00000000000000E+00   0.00000000000000E+00   0.00000000000000E+00   0.00000000000000E+00
      0.00000000000000E+00   1.05438760854095E-15
      5.17444444444445E-01
      0.00000000000000E+00   0.00000000000000E+00   0.00000000000000E+00   0.00000000000000E+00   1.51990128979550E-19
     -1.69992929661832E-15  -1.69977730648934E-15  -6.80649491994120E-15   0.00000000000000E+00   0.00000000000000E+00
      0.00000000000000E+00   0.00000000000000E+00  -7.86808849587759E-17   5.20380232824225E-27  -7.86808849535721E-17
      1.86889738855488E-15   1.55233333333333E+00   1.55233333333333E+00   0.00000000000000E+00   0.00000000000000E+00
      1.77841566254735E-15   4.25288955643688E-20   1.77845819144292E-15   3.88901785986586E-15   1.00000000000000E+00
      1.00000000000000E+00   0.00000000000000E+00   0.00000000000000E+00   0.00000000000000E+00   0.00000000000000E+00
      0.00000000000000E+00   1.04857967152046E-15
      5.42444444444445E-01
      0.00000000000000E+00   0.00000000000000E+00   0.00000000000000E+00   0.00000000000000E+00  -4.08833115983959E-18
     -1.72440523498733E-15  -1.72849356614717E-15  -6.88504380776064E-15   0.00000000000000E+00   0.00000000000000E+00
      0.00000000000000E+00   0.00000000000000E+00  -7.45820112915484E-17  -3.08934855357855E-27  -7.45820112946377E-17
      1.86889738855485E-15   1.62733333333333E+00   1.62733333333333E+00   0.00000000000000E+00   0.00000000000000E+00
      1.80303304151078E-15   4.25359310285256E-20   1.80307557744181E-15   3.97338449228116E-15   1.00000000000000E+00
      1.00000000000000E+00   0.00000000000000E+00   0.00000000000000E+00   0.00000000000000E+00   0.00000000000000E+00
      0.00000000000000E+00   1.04276192692463E-15
      5.67444444444445E-01
      0.00000000000000E+00   0.00000000000000E+00   0.00000000000000E+00   0.00000000000000E+00  -7.52720531154838E-20
     -1.75905995683307E-15  -1.75913522888619E-15  -6.96317115083361E-15   0.00000000000000E+00   0.00000000000000E+00
      0.00000000000000E+00   0.00000000000000E+00  -7.87356095004259E-17  -1.10956571157787E-28  -7.87356095005369E-17
      1.86889738855482E-15   1.70233333333333E+00   1.70233333333333E+00   0.00000000000000E+00   0.00000000000000E+00
      1.83782829569400E-15   4.25426927254336E-20   1.83787083838672E-15   4.05733975056680E-15   1.00000000000000E+00
      1.00000000000000E+00   0.00000000000000E+00   0.00000000000000E+00   0.00000000000000E+00   0.00000000000000E+00
      0.00000000000000E+00   1.03693401171199E-15
      5.92444444444445E-01
      0.00000000000000E+00   0.00000000000000E+00   0.00000000000000E+00   0.00000000000000E+00   2.56389177018489E-18
     -1.81712447636233E-15  -1.81456058459215E-15  -7.04087360881116E-15   0.00000000000000E+00   0.00000000000000E+00
      0.00000000000000E+00   0.00000000000000E+00  -8.15144420160214E-17   6.97692201880782E-28  -8.15144420153237E-17
      1.86889738855478E-15   1.77733333333333E+00   1.77733333333333E+00   0.00000000000000E+00   0.00000000000000E+00
      1.89603247740253E-15   4.25492049419387E-20   1.89607502660748E-15   4.14088047876672E-15   1.00000000000000E+00
      1.00000000000000E+00   0.00000000000000E+00   0.00000000000000E+00   0.00000000000000E+00   0.00000000000000E+00
      0.00000000000000E+00   1.03109574148966E-15
      6.17444444444445E-01
      0.00000000000000E+00   0.00000000000000E+00   0.00000000000000E+00   0.00000000000000E+00  -1.87896515184304E-19
     -1.91195362399709E-15  -1.91214152051227E-15  -7.11814663984515E-15   0.00000000000000E+00   0.00000000000000E+00
      0.00000000000000E+00   0.00000000000000E+00  -7.89013403381394E-17  -4.74179371640242E-27  -7.89013403428812E-17
      1.86889738855472E-15   1.85233333333333E+00   1.85233333333333E+00   0.00000000000000E+00   0.00000000000000E+00
      1.99100030594329E-15   4.25549118628760E-20   1.99104286085515E-15   4.22400211679932E-15   1.00000000000000E+00
      1.00000000000000E+00   0.00000000000000E+00   0.00000000000000E+00   0.00000000000000E+00   0.00000000000000E+00
      0.00000000000000E+00   1.02524713449111E-15
      6.42444444444445E-01
      0.00000000000000E+00   0.00000000000000E+00   0.00000000000000E+00   0.00000000000000E+00  -1.32659777669314E-18
     -2.03585236395735E-15  -2.03717896173404E-15  -7.19497274413805E-15   0.00000000000000E+00   0.00000000000000E+00
      0.00000000000000E+00   0.00000000000000E+00  -7.79006882496898E-17   1.38348996556268E-28  -7.79006882495515E-17
      1.86889738855470E-15   1.92733333333333E+00   1.92733333333333E+00   0.00000000000000E+00   0.00000000000000E+00
      2.11503708866359E-15   4.25613200052825E-20   2.11507964998360E-15   4.30668699522541E-15   1.00000000000000E+00
      1.00000000000000E+00   0.00000000000000E+00   0.00000000000000E+00   0.00000000000000E+00   0.00000000000000E+00
      0.00000000000000E+00   1.01938836035794E-15
      6.67444444444445E-01
      0.00000000000000E+00   0.00000000000000E+00   0.00000000000000E+00   0.00000000000000E+00   2.67106467967311E-18
     -2.15166007948601E-15  -2.14898901480634E-15  -7.27131164291746E-15   0.00000000000000E+00   0.00000000000000E+00
      0.00000000000000E+00   0.00000000000000E+00  -8.20354804001180E-17   3.42390343666499E-27  -8.20354803966941E-17
      1.86889738855470E-15   2.00233333333333E+00   2.00233333333333E+00   0.00000000000000E+00   0.00000000000000E+00
      2.23098193285536E-15   4.25623476695606E-20   2.23102449520303E-15   4.38889458411047E-15   1.00000000000000E+00
      1.00000000000000E+00   0.00000000000000E+00   0.00000000000000E+00   0.00000000000000E+00   0.00000000000000E+00
      0.00000000000000E+00   1.01351967025231E-15
      6.92444444444445E-01
      0.00000000000000E+00   0.00000000000000E+00   0.00000000000000E+00   0.00000000000000E+00   3.87060617746546E-18
     -2.22981388695217E-15  -2.22594328077471E-15  -7.34709358009539E-15   0.00000000000000E+00   0.00000000000000E+00
      0.00000000000000E+00   0.00000000000000E+00  -8.33712071079363E-17   2.10216826736112E-27  -8.33712071058341E-17
      1.86889738855475E-15   2.07733333333333E+00   2.07733333333333E+00   0.00000000000000E+00   0.00000000000000E+00
      2.30927192184745E-15   4.25660330966847E-20   2.30931448788054E-15   4.47055484541858E-15   1.00000000000000E+00
      1.00000000000000E+00   0.00000000000000E+00   0.00000000000000E+00   0.00000000000000E+00   0.00000000000000E+00
      0.00000000000000E+00   1.00764134612205E-15
      7.17444444444445E-01
      0.00000000000000E+00   0.00000000000000E+00   0.00000000000000E+00   0.00000000000000E+00   2.08737253108956E-18
     -2.27336311377911E-15  -2.27127574124802E-15  -7.42221365801439E-15   0.00000000000000E+00   0.00000000000000E+00
      0.00000000000000E+00   0.00000000000000E+00  -8.17233889018982E-17   1.29691216187194E-27  -8.17233889006013E-17
      1.86889738855493E-15   2.15233333333333E+00   2.15233333333333E+00   0.00000000000000E+00   0.00000000000000E+00
      2.35295655391472E-15   4.25762339095558E-20   2.35299913014863E-15   4.55156259569676E-15   1.00000000000000E+00
      1.00000000000000E+00   0.00000000000000E+00   0.00000000000000E+00   0.00000000000000E+00   0.00000000000000E+00
      0.00000000000000E+00   1.00175367376269E-15
      7.42444444444445E-01
      0.00000000000000E+00   0.00000000000000E+00   0.00000000000000E+00   0.00000000000000E+00   7.57173215981271E-19
     -2.29892964192790E-15  -2.29817246871192E-15  -7.49652589817061E-15   0.00000000000000E+00   0.00000000000000E+00
      0.00000000000000E+00   0.00000000000000E+00  -8.05280856796084E-17   3.65468315089222E-27  -8.05280856759537E-17
      1.86889738855531E-15   2.22733333333333E+00   2.22733333333333E+00   0.00000000000000E+00   0.00000000000000E+00
      2.37865797687485E-15   4.25775130195160E-20   2.37870055438787E-15   4.63177157930659E-15   1.00000000000000E+00
      1.00000000000000E+00   0.00000000000000E+00   0.00000000000000E+00   0.00000000000000E+00   0.00000000000000E+00
      0.00000000000000E+00   9.95856930308716E-16
      7.67444444444445E-01
      0.00000000000000E+00   0.00000000000000E+00   0.00000000000000E+00   0.00000000000000E+00  -1.54921880755997E-18
     -2.31811702005288E-15  -2.31966623886045E-15  -7.56983923885046E-15   0.00000000000000E+00   0.00000000000000E+00
      0.00000000000000E+00   0.00000000000000E+00  -7.83560917565078E-17  -2.41021268391575E-28  -7.83560917567488E-17
      1.86889738855442E-15   2.30233333333333E+00   2.30233333333333E+00   0.00000000000000E+00   0.00000000000000E+00
      2.39797974161258E-15   4.25890046153608E-20   2.39802233061719E-15   4.71099047278756E-15   1.00000000000000E+00
      1.00000000000000E+00   0.00000000000000E+00   0.00000000000000E+00   0.00000000000000E+00   0.00000000000000E+00
      0.00000000000000E+00   9.89951377508470E-16
      7.92444444444445E-01
      0.00000000000000E+00   0.00000000000000E+00   0.00000000000000E+00   0.00000000000000E+00   1.07412998586310E-18
     -2.33527568901487E-15  -2.33420155902900E-15  -7.64192401080090E-15   0.00000000000000E+00   0.00000000000000E+00
      0.00000000000000E+00   0.00000000000000E+00  -8.11127193173771E-17   6.02886940756552E-28  -8.11127193167742E-17
      1.86889738855439E-15   2.37733333333333E+00   2.37733333333333E+00   0.00000000000000E+00   0.00000000000000E+00
      2.41527168442920E-15   4.25939165801728E-20   2.41531427834578E-15   4.78898936577553E-15   1.00000000000000E+00
      1.00000000000000E+00   0.00000000000000E+00   0.00000000000000E+00   0.00000000000000E+00   0.00000000000000E+00
      0.00000000000000E+00   9.84037256470969E-16
      8.17444444444445E-01
      0.00000000000000E+00   0.00000000000000E+00   0.00000000000000E+00   0.00000000000000E+00  -8.78065711543032E-19
     -2.35182694657609E-15  -2.35270501228764E-15  -7.71254592420194E-15   0.00000000000000E+00   0.00000000000000E+00
      0.00000000000000E+00   0.00000000000000E+00  -7.92930715114831E-17   8.88647317910863E-28  -7.92930715105945E-17
      1.86889738855437E-15   2.45233333333333E+00   2.45233333333333E+00   0.00000000000000E+00   0.00000000000000E+00
      2.43195548517756E-15   4.25986206693074E-20   2.43199808379823E-15   4.86553375279627E-15   1.00000000000000E+00
      1.00000000000000E+00   0.00000000000000E+00   0.00000000000000E+00   0.00000000000000E+00   0.00000000000000E+00
      0.00000000000000E+00   9.78114782851308E-16
      8.42444444444445E-01
      0.00000000000000E+00   0.00000000000000E+00   0.00000000000000E+00   0.00000000000000E+00   7.33990601705935E-19
     -2.36791784513559E-15  -2.36718385453388E-15  -7.78154344703103E-15   0.00000000000000E+00   0.00000000000000E+00
      0.00000000000000E+00   0.00000000000000E+00  -8.10369624801431E-17   3.19203048023143E-27  -8.10369624769511E-17
      1.86889738855434E-15   2.52733333333333E+00   2.52733333333333E+00   0.00000000000000E+00   0.00000000000000E+00
      2.44817821389775E-15   4.26031130830704E-20   2.44822081701084E-15   4.94046191556643E-15   1.00000000000000E+00
      1.00000000000000E+00   0.00000000000000E+00   0.00000000000000E+00   0.00000000000000E+00   0.00000000000000E+00
      0.00000000000000E+00   9.72184142910269E-16
      8.67444444444445E-01
      0.00000000000000E+00   0.00000000000000E+00   0.00000000000000E+00   0.00000000000000E+00   1.59197601454823E-18