DF-ISE text

Info {
  version   = 1.0
  type      = xyplot
  datasets  = [
    "time"
    "substrate OuterVoltage" "substrate InnerVoltage" "substrate QuasiFermiPotential" "substrate DisplacementCurrent" "substrate eCurrent"
    "substrate hCurrent" "substrate TotalCurrent" "substrate Charge" "source OuterVoltage" "source InnerVoltage"
    "source QuasiFermiPotential" "source DisplacementCurrent" "source eCurrent" "source hCurrent" "source TotalCurrent"
    "source Charge" "drain OuterVoltage" "drain InnerVoltage" "drain QuasiFermiPotential" "drain DisplacementCurrent"
    "drain eCurrent" "drain hCurrent" "drain TotalCurrent" "drain Charge" "gate OuterVoltage"
    "gate InnerVoltage" "gate QuasiFermiPotential" "gate DisplacementCurrent" "gate eCurrent" "gate hCurrent"
    "gate TotalCurrent" "gate Charge" ]
  functions = [
    Time
    OuterVoltage InnerVoltage QuasiFermiPotential DisplacementCurrent eCurrent
    hCurrent TotalCurrent Charge OuterVoltage InnerVoltage
    QuasiFermiPotential DisplacementCurrent eCurrent hCurrent TotalCurrent
    Charge OuterVoltage InnerVoltage QuasiFermiPotential DisplacementCurrent
    eCurrent hCurrent TotalCurrent Charge OuterVoltage
    InnerVoltage QuasiFermiPotential DisplacementCurrent eCurrent hCurrent
    TotalCurrent Charge ]
}

Data {
      0.00000000000000E+00
      0.00000000000000E+00   0.00000000000000E+00   0.00000000000000E+00   0.00000000000000E+00  -9.73854670006379E-19
      4.79213585406937E-28  -9.73854669527166E-19  -8.89054992850886E-16   0.00000000000000E+00   0.00000000000000E+00
      0.00000000000000E+00   0.00000000000000E+00   4.46190854138197E-18  -1.59759394949468E-28   4.46190854122221E-18
      3.76244600083253E-16   0.00000000000000E+00   0.00000000000000E+00   0.00000000000000E+00   0.00000000000000E+00
     -1.11199399554157E-18  -3.19488231165274E-28  -1.11199399586106E-18   4.06657667626679E-16   1.00000000000000E+00
      1.00000000000000E+00   0.00000000000000E+00   0.00000000000000E+00   0.00000000000000E+00   0.00000000000000E+00
      0.00000000000000E+00   1.13806927821460E-16
      1.00000000000000E-02
      0.00000000000000E+00   0.00000000000000E+00   0.00000000000000E+00   0.00000000000000E+00   5.96270952950693E-15
     -1.46363814494794E-17   5.94807314805745E-15  -8.98177156635173E-16   0.00000000000000E+00   0.00000000000000E+00
      0.00000000000000E+00   0.00000000000000E+00  -6.60023784591015E-04  -5.07886784895564E-23  -6.60023784591015E-04
      3.70419559007306E-16   3.00000000000000E-02   3.00000000000000E-02   0.00000000000000E+00   0.00000000000000E+00
      6.60023784582368E-04   3.73505745878098E-21   6.60023784582368E-04   4.25137932369091E-16   1.00000000000000E+00
      1.00000000000000E+00   0.00000000000000E+00   0.00000000000000E+00   0.00000000000000E+00   0.00000000000000E+00
      0.00000000000000E+00   1.10189705866231E-16
      2.33333333333333E-02
      0.00000000000000E+00   0.00000000000000E+00   0.00000000000000E+00   0.00000000000000E+00  -3.47407605367953E-16
     -2.84363264355014E-17  -3.75843931803455E-16  -9.10728580809694E-16   0.00000000000000E+00   0.00000000000000E+00
      0.00000000000000E+00   0.00000000000000E+00  -1.36396921642228E-03  -1.03819389281868E-22  -1.36396921642228E-03
      3.60412031068443E-16   7.00000000000000E-02   7.00000000000000E-02   0.00000000000000E+00   0.00000000000000E+00
      1.36396921642264E-03   3.88551920765727E-21   1.36396921642264E-03   4.52564492149634E-16   1.00000000000000E+00
      1.00000000000000E+00   0.00000000000000E+00   0.00000000000000E+00   0.00000000000000E+00   0.00000000000000E+00
      0.00000000000000E+00   1.05393732188022E-16
      4.20000000000000E-02
      0.00000000000000E+00   0.00000000000000E+00   0.00000000000000E+00   0.00000000000000E+00  -5.49121217893823E-15
     -4.26374363449555E-17  -5.53384961528318E-15  -9.29485439107141E-16   0.00000000000000E+00   0.00000000000000E+00
      0.00000000000000E+00   0.00000000000000E+00  -2.04833767119228E-03  -6.64090718981676E-23  -2.04833767119228E-03
      3.41635359647281E-16   1.26000000000000E-01   1.26000000000000E-01   0.00000000000000E+00   0.00000000000000E+00
      2.04833767119920E-03   5.80328434579169E-21   2.04833767119920E-03   4.97510687358181E-16   1.00000000000000E+00
      1.00000000000000E+00   0.00000000000000E+00   0.00000000000000E+00   0.00000000000000E+00   0.00000000000000E+00
      0.00000000000000E+00   9.87674713658804E-17
      6.70000000000000E-02
      0.00000000000000E+00   0.00000000000000E+00   0.00000000000000E+00   0.00000000000000E+00   3.20354885058766E-19
     -5.90389967310016E-17  -5.87186418459428E-17  -9.56023938836525E-16   0.00000000000000E+00   0.00000000000000E+00
      0.00000000000000E+00   0.00000000000000E+00  -2.62695934808216E-03  -3.34122665937471E-22  -2.62695934808216E-03
      3.10325414447183E-16   2.01000000000000E-01   2.01000000000000E-01   0.00000000000000E+00   0.00000000000000E+00
      2.62695934808222E-03   2.25426817654731E-20   2.62695934808222E-03   5.66172911669361E-16   1.00000000000000E+00
      1.00000000000000E+00   0.00000000000000E+00   0.00000000000000E+00   0.00000000000000E+00   0.00000000000000E+00
      0.00000000000000E+00   9.00341195485184E-17
      9.20000000000000E-02
      0.00000000000000E+00   0.00000000000000E+00   0.00000000000000E+00   0.00000000000000E+00  -6.50404171930055E-15
     -7.57323735540507E-17  -6.57977409285460E-15  -9.82876059887112E-16   0.00000000000000E+00   0.00000000000000E+00
      0.00000000000000E+00   0.00000000000000E+00  -3.11653966695459E-03  -4.32407566404840E-22  -3.11653966695459E-03
      2.77769969890628E-16   2.76000000000000E-01   2.76000000000000E-01   0.00000000000000E+00   0.00000000000000E+00
      3.11653966696117E-03   1.16820732738004E-20   3.11653966696117E-03   6.36611839133011E-16   1.00000000000000E+00
      1.00000000000000E+00   0.00000000000000E+00   0.00000000000000E+00   0.00000000000000E+00   0.00000000000000E+00
      0.00000000000000E+00   8.13638293271504E-17
      1.17000000000000E-01
      0.00000000000000E+00   0.00000000000000E+00   0.00000000000000E+00   0.00000000000000E+00   2.13841628004329E-17
     -9.12060316327169E-17  -6.98218688322841E-17  -1.00944746459746E-15   0.00000000000000E+00   0.00000000000000E+00
      0.00000000000000E+00   0.00000000000000E+00  -3.60481664659571E-03  -1.56908763611581E-22  -3.60481664659571E-03
      2.45851301697376E-16   3.51000000000000E-01   3.51000000000000E-01   0.00000000000000E+00   0.00000000000000E+00
      3.60481664659578E-03   4.85072135446417E-21   3.60481664659578E-03   7.06087489923330E-16   1.00000000000000E+00
      1.00000000000000E+00   0.00000000000000E+00   0.00000000000000E+00   0.00000000000000E+00   0.00000000000000E+00
      0.00000000000000E+00   7.27272278783442E-17
      1.42000000000000E-01
      0.00000000000000E+00   0.00000000000000E+00   0.00000000000000E+00   0.00000000000000E+00   2.54884990566671E-19
     -1.04553105100277E-16  -1.04298220109710E-16  -1.03559840378957E-15   0.00000000000000E+00   0.00000000000000E+00
      0.00000000000000E+00   0.00000000000000E+00  -4.09455961869308E-03  -4.88579701783956E-22  -4.09455961869308E-03
      2.14670562733171E-16   4.26000000000000E-01   4.26000000000000E-01   0.00000000000000E+00   0.00000000000000E+00
      4.09455961869318E-03   9.91117905997139E-21   4.09455961869318E-03   7.74302844770904E-16   1.00000000000000E+00
      1.00000000000000E+00   0.00000000000000E+00   0.00000000000000E+00   0.00000000000000E+00   0.00000000000000E+00
      0.00000000000000E+00   6.41263918655849E-17
      1.67000000000000E-01
      0.00000000000000E+00   0.00000000000000E+00   0.00000000000000E+00   0.00000000000000E+00  -3.09323699304459E-18
     -1.16179790967129E-16  -1.19273027960173E-16  -1.06142092089404E-15   0.00000000000000E+00   0.00000000000000E+00
      0.00000000000000E+00   0.00000000000000E+00  -4.58164634235750E-03  -5.64793074171797E-22  -4.58164634235750E-03
      1.84172890273972E-16   5.01000000000000E-01   5.01000000000000E-01   0.00000000000000E+00   0.00000000000000E+00
      4.58164634235762E-03   1.03241614095775E-20   4.58164634235762E-03   8.41362150417500E-16   1.00000000000000E+00
      1.00000000000000E+00   0.00000000000000E+00   0.00000000000000E+00   0.00000000000000E+00   0.00000000000000E+00
      0.00000000000000E+00   5.55667593196707E-17
      1.92000000000000E-01
      0.00000000000000E+00   0.00000000000000E+00   0.00000000000000E+00   0.00000000000000E+00   1.63297422258380E-12
     -1.29184554189512E-16   1.63284503802961E-12  -1.08697034606111E-15   0.00000000000000E+00   0.00000000000000E+00
      0.00000000000000E+00   0.00000000000000E+00  -5.06237563152217E-03  -1.26760131309767E-21  -5.06237563152217E-03
      1.54377141887304E-16   5.76000000000000E-01   5.76000000000000E-01   0.00000000000000E+00   0.00000000000000E+00
      5.06237563233072E-03  -9.03576830669538E-22   5.06237563233072E-03   9.07264087556432E-16   1.00000000000000E+00
      1.00000000000000E+00   0.00000000000000E+00   0.00000000000000E+00   0.00000000000000E+00   0.00000000000000E+00
      0.00000000000000E+00   4.70532719870490E-17
      2.17000000000000E-01
      0.00000000000000E+00   0.00000000000000E+00   0.00000000000000E+00   0.00000000000000E+00   3.73036837781701E-17
     -1.46148294169629E-16  -1.08844610391459E-16  -1.11222933321442E-15   0.00000000000000E+00   0.00000000000000E+00
      0.00000000000000E+00   0.00000000000000E+00  -5.53318076065112E-03  -7.75253874918562E-22  -5.53318076065112E-03
      1.25379046105049E-16   6.51000000000000E-01   6.51000000000000E-01   0.00000000000000E+00   0.00000000000000E+00
      5.53318076065123E-03   1.18405527836996E-20   5.53318076065123E-03   9.71875883073352E-16   1.00000000000000E+00
      1.00000000000000E+00   0.00000000000000E+00   0.00000000000000E+00   0.00000000000000E+00   0.00000000000000E+00
      0.00000000000000E+00   3.85880731373436E-17
      2.42000000000000E-01
      0.00000000000000E+00   0.00000000000000E+00   0.00000000000000E+00   0.00000000000000E+00   3.33572239486612E-12
     -1.63132734237502E-16   3.33555926213188E-12  -1.13715999929342E-15   0.00000000000000E+00   0.00000000000000E+00
      0.00000000000000E+00   0.00000000000000E+00  -5.99069178289289E-03  -5.91906867160610E-22  -5.99069178289289E-03
      9.73136429680133E-17   7.26000000000000E-01   7.26000000000000E-01   0.00000000000000E+00   0.00000000000000E+00
      5.99069177998779E-03   6.64394584049282E-21   5.99069177998779E-03   1.03502707260589E-15   1.00000000000000E+00
      1.00000000000000E+00   0.00000000000000E+00   0.00000000000000E+00   0.00000000000000E+00   0.00000000000000E+00
      0.00000000000000E+00   3.01694973802292E-17
      2.67000000000000E-01
      0.00000000000000E+00   0.00000000000000E+00   0.00000000000000E+00   0.00000000000000E+00  -2.60481572457961E-18
     -1.76466545969026E-16  -1.79071361693606E-16  -1.16173378375568E-15   0.00000000000000E+00   0.00000000000000E+00
      0.00000000000000E+00   0.00000000000000E+00  -6.43198306108156E-03  -1.28572085733707E-21  -6.43198306108156E-03
      7.03181060554915E-17   8.01000000000000E-01   8.01000000000000E-01   0.00000000000000E+00   0.00000000000000E+00
      6.43198306108174E-03   1.74885025827043E-20   6.43198306108174E-03   1.09656895241442E-15   1.00000000000000E+00
      1.00000000000000E+00   0.00000000000000E+00   0.00000000000000E+00   0.00000000000000E+00   0.00000000000000E+00
      0.00000000000000E+00   2.17936105070528E-17
      2.92000000000000E-01
      0.00000000000000E+00   0.00000000000000E+00   0.00000000000000E+00   0.00000000000000E+00   2.19460520695999E-14
     -1.86483074848559E-16   2.17595689947513E-14  -1.18595583151385E-15   0.00000000000000E+00   0.00000000000000E+00
      0.00000000000000E+00   0.00000000000000E+00  -6.85471398210567E-03  -1.47332577558334E-21  -6.85471398210567E-03
      4.45068490970023E-17   8.76000000000000E-01   8.76000000000000E-01   0.00000000000000E+00   0.00000000000000E+00
      6.85471398202079E-03   2.02464938846971E-20   6.85471398202079E-03   1.15641326210144E-15   1.00000000000000E+00
      1.00000000000000E+00   0.00000000000000E+00   0.00000000000000E+00   0.00000000000000E+00   0.00000000000000E+00
      0.00000000000000E+00   1.34561890282028E-17
      3.17000000000000E-01
      0.00000000000000E+00   0.00000000000000E+00   0.00000000000000E+00   0.00000000000000E+00   6.88035728821640E-18
     -1.93796240607269E-16  -1.86915883319052E-16  -1.20987359049301E-15   0.00000000000000E+00   0.00000000000000E+00
      0.00000000000000E+00   0.00000000000000E+00  -7.25761263970536E-03  -9.18921080827778E-22  -7.25761263970536E-03
      1.99701572349194E-17   9.51000000000000E-01   9.51000000000000E-01   0.00000000000000E+00   0.00000000000000E+00
      7.25761263970555E-03   1.09505103910634E-20   7.25761263970555E-03   1.21453713080491E-15   1.00000000000000E+00
      1.00000000000000E+00   0.00000000000000E+00   0.00000000000000E+00   0.00000000000000E+00   0.00000000000000E+00
      0.00000000000000E+00   5.15381269431662E-18
      3.42000000000000E-01
      0.00000000000000E+00   0.00000000000000E+00   0.00000000000000E+00   0.00000000000000E+00   2.15192983446284E-18
     -2.00206178608249E-16  -1.98054248773786E-16  -1.23355524938958E-15   0.00000000000000E+00   0.00000000000000E+00
      0.00000000000000E+00   0.00000000000000E+00  -7.63987094909067E-03  -1.41961445169339E-21  -7.63987094909067E-03
     -3.23568653142906E-18   1.02600000000000E+00   1.02600000000000E+00   0.00000000000000E+00   0.00000000000000E+00
      7.63987094909086E-03   1.54032766578612E-20   7.63987094909086E-03   1.27097152037375E-15   1.00000000000000E+00
      1.00000000000000E+00   0.00000000000000E+00   0.00000000000000E+00   0.00000000000000E+00   0.00000000000000E+00
      0.00000000000000E+00  -3.11673513141082E-18
      3.67000000000000E-01
      0.00000000000000E+00   0.00000000000000E+00   0.00000000000000E+00   0.00000000000000E+00  -4.53015974684663E-18
     -2.06259376333533E-16  -2.10789536080379E-16  -1.25706905299697E-15   0.00000000000000E+00   0.00000000000000E+00
      0.00000000000000E+00   0.00000000000000E+00  -8.00203331733531E-03  -1.39428968402112E-21  -8.00203331733531E-03
     -2.51369788734028E-17   1.10100000000000E+00   1.10100000000000E+00   0.00000000000000E+00   0.00000000000000E+00
      8.00203331733552E-03   1.43280893906409E-20   8.00203331733552E-03   1.32583142129293E-15   1.00000000000000E+00
      1.00000000000000E+00   0.00000000000000E+00   0.00000000000000E+00   0.00000000000000E+00   0.00000000000000E+00
      0.00000000000000E+00  -1.13596144354950E-17
      3.92000000000000E-01
      0.00000000000000E+00   0.00000000000000E+00   0.00000000000000E+00   0.00000000000000E+00  -1.04163529353034E-12
     -2.11346628670528E-16  -1.04184664015901E-12  -1.28047028086007E-15   0.00000000000000E+00   0.00000000000000E+00
      0.00000000000000E+00   0.00000000000000E+00  -8.34638044117307E-03  -1.22722648966982E-21  -8.34638044117307E-03
     -4.58782514855117E-17   1.17600000000000E+00   1.17600000000000E+00   0.00000000000000E+00   0.00000000000000E+00
      8.34638044220075E-03   3.97620642035645E-21   8.34638044220075E-03   1.37933825522092E-15   1.00000000000000E+00
      1.00000000000000E+00   0.00000000000000E+00   0.00000000000000E+00   0.00000000000000E+00   0.00000000000000E+00
      0.00000000000000E+00  -1.95802659036131E-17
      4.17000000000000E-01
      0.00000000000000E+00   0.00000000000000E+00   0.00000000000000E+00   0.00000000000000E+00  -4.54298907831139E-14
     -2.15909947568548E-16  -4.56458007306825E-14  -1.30379721440593E-15   0.00000000000000E+00   0.00000000000000E+00
      0.00000000000000E+00   0.00000000000000E+00  -8.67624709094856E-03  -1.27254734275180E-21  -8.67624709094856E-03
     -6.56821815548817E-17   1.25100000000000E+00   1.25100000000000E+00   0.00000000000000E+00   0.00000000000000E+00
      8.67624709099445E-03   3.49489785288907E-21   8.67624709099445E-03   1.43177250256466E-15   1.00000000000000E+00
      1.00000000000000E+00   0.00000000000000E+00   0.00000000000000E+00   0.00000000000000E+00   0.00000000000000E+00
      0.00000000000000E+00  -2.77844031962549E-17
      4.42000000000000E-01
      0.00000000000000E+00   0.00000000000000E+00   0.00000000000000E+00   0.00000000000000E+00   1.58565411812595E-18
     -2.20735405466668E-16  -2.19149751348542E-16  -1.32707256610519E-15   0.00000000000000E+00   0.00000000000000E+00
      0.00000000000000E+00   0.00000000000000E+00  -8.99481393333306E-03  -1.21950891203564E-21  -8.99481393333306E-03
     -8.47696593792010E-17   1.32600000000000E+00   1.32600000000000E+00   0.00000000000000E+00   0.00000000000000E+00
      8.99481393333327E-03   1.05324086427605E-20   8.99481393333327E-03   1.48339249886132E-15   1.00000000000000E+00
      1.00000000000000E+00   0.00000000000000E+00   0.00000000000000E+00   0.00000000000000E+00   0.00000000000000E+00
      0.00000000000000E+00  -3.59767876308836E-17
      4.67000000000000E-01
      0.00000000000000E+00   0.00000000000000E+00   0.00000000000000E+00   0.00000000000000E+00  -2.03520612325849E-15
     -2.25601408394412E-16  -2.26080753165290E-15  -1.35030907649980E-15   0.00000000000000E+00   0.00000000000000E+00
      0.00000000000000E+00   0.00000000000000E+00  -9.30455556026538E-03  -2.60769761575046E-21  -9.30455556026538E-03
     -1.03312318259623E-16   1.40100000000000E+00   1.40100000000000E+00   0.00000000000000E+00   0.00000000000000E+00
      9.30455556026768E-03   2.87510057298392E-20   9.30455556026768E-03   1.53439247319552E-15   1.00000000000000E+00
      1.00000000000000E+00   0.00000000000000E+00   0.00000000000000E+00   0.00000000000000E+00   0.00000000000000E+00
      0.00000000000000E+00  -4.41608473282092E-17
      4.92000000000000E-01
      0.00000000000000E+00   0.00000000000000E+00   0.00000000000000E+00   0.00000000000000E+00   2.94472463263120E-18
     -2.30094156807504E-16  -2.27149432174873E-16  -1.37351030966955E-15   0.00000000000000E+00   0.00000000000000E+00
      0.00000000000000E+00   0.00000000000000E+00  -9.60719250450702E-03  -1.53945067787496E-21  -9.60719250450702E-03
     -1.21435172657772E-16   1.47600000000000E+00   1.47600000000000E+00   0.00000000000000E+00   0.00000000000000E+00
      9.60719250450725E-03   1.63729156389375E-20   9.60719250450725E-03   1.58490730879448E-15   1.00000000000000E+00
      1.00000000000000E+00   0.00000000000000E+00   0.00000000000000E+00   0.00000000000000E+00   0.00000000000000E+00
      0.00000000000000E+00  -5.23388834249625E-17
      5.17000000000000E-01
      0.00000000000000E+00   0.00000000000000E+00   0.00000000000000E+00   0.00000000000000E+00   3.22786463990792E-18
     -2.34631253259237E-16  -2.31403388619329E-16  -1.39667462357805E-15   0.00000000000000E+00   0.00000000000000E+00
      0.00000000000000E+00   0.00000000000000E+00  -9.90393016543663E-03  -1.13077746119356E-21  -9.90393016543663E-03
     -1.39229449007989E-16   1.55100000000000E+00   1.55100000000000E+00   0.00000000000000E+00   0.00000000000000E+00
      9.90393016543686E-03   3.15125596057607E-20   9.90393016543686E-03   1.63503071470967E-15   1.00000000000000E+00
      1.00000000000000E+00   0.00000000000000E+00   0.00000000000000E+00   0.00000000000000E+00   0.00000000000000E+00
      0.00000000000000E+00  -6.05124896756857E-17
      5.42000000000000E-01
      0.00000000000000E+00   0.00000000000000E+00   0.00000000000000E+00   0.00000000000000E+00  -1.15424611009087E-15
     -2.39428592712823E-16  -1.39367470280369E-15  -1.41979799872739E-15   0.00000000000000E+00   0.00000000000000E+00
      0.00000000000000E+00   0.00000000000000E+00  -1.01956349979594E-02  -2.50434644267525E-21  -1.01956349979594E-02
     -1.56763923399563E-16   1.62600000000000E+00   1.62600000000000E+00   0.00000000000000E+00   0.00000000000000E+00
      1.01956349979608E-02   2.86195281604031E-20   1.01956349979608E-02   1.68483028756011E-15   1.00000000000000E+00
      1.00000000000000E+00   0.00000000000000E+00   0.00000000000000E+00   0.00000000000000E+00   0.00000000000000E+00
      0.00000000000000E+00  -6.86828532119508E-17
      5.67000000000000E-01
      0.00000000000000E+00   0.00000000000000E+00   0.00000000000000E+00   0.00000000000000E+00  -9.00100160395829E-16
     -2.44382796779533E-16  -1.14448295717536E-15  -1.44287525686276E-15   0.00000000000000E+00   0.00000000000000E+00
      0.00000000000000E+00   0.00000000000000E+00  -1.04829374080376E-02  -2.44974040440058E-21  -1.04829374080376E-02
     -1.74091480645698E-16   1.70100000000000E+00   1.70100000000000E+00   0.00000000000000E+00   0.00000000000000E+00
      1.04829374080387E-02   2.64483787379726E-20   1.04829374080387E-02   1.73435576213076E-15   1.00000000000000E+00
      1.00000000000000E+00   0.00000000000000E+00   0.00000000000000E+00   0.00000000000000E+00   0.00000000000000E+00
      0.00000000000000E+00  -7.68508886974018E-17
      5.92000000000000E-01
      0.00000000000000E+00   0.00000000000000E+00   0.00000000000000E+00   0.00000000000000E+00  -2.11684661178560E-14
     -2.49660095021113E-16  -2.14181262128771E-14  -1.46589794004740E-15   0.00000000000000E+00   0.00000000000000E+00
      0.00000000000000E+00   0.00000000000000E+00  -1.07662795555611E-02  -2.54096710804348E-21  -1.07662795555611E-02
     -1.91252934641200E-16   1.77600000000000E+00   1.77600000000000E+00   0.00000000000000E+00   0.00000000000000E+00
      1.07662795555825E-02   1.87659389399084E-20   1.07662795555825E-02   1.78364089582174E-15   1.00000000000000E+00
      1.00000000000000E+00   0.00000000000000E+00   0.00000000000000E+00   0.00000000000000E+00   0.00000000000000E+00
      0.00000000000000E+00  -8.50172309661471E-17
      6.17000000000000E-01
      0.00000000000000E+00   0.00000000000000E+00   0.00000000000000E+00   0.00000000000000E+00  -1.38702642614943E-14
     -2.55976919499017E-16  -1.41262411809933E-14  -1.48885590397952E-15   0.00000000000000E+00   0.00000000000000E+00
      0.00000000000000E+00   0.00000000000000E+00  -1.10459835467164E-02  -2.54104302626690E-21  -1.10459835467164E-02
     -2.08278721561896E-16   1.85100000000000E+00   1.85100000000000E+00   0.00000000000000E+00   0.00000000000000E+00
      1.10459835467305E-02   1.81263163801432E-20   1.10459835467305E-02   1.83270692457637E-15   1.00000000000000E+00
      1.00000000000000E+00   0.00000000000000E+00   0.00000000000000E+00   0.00000000000000E+00   0.00000000000000E+00
      0.00000000000000E+00  -9.31822722795332E-17
      6.42000000000000E-01
      0.00000000000000E+00   0.00000000000000E+00   0.00000000000000E+00   0.00000000000000E+00  -8.90903860309218E-15
     -2.64290808998030E-16  -9.17332941209021E-15  -1.51173670363982E-15   0.00000000000000E+00   0.00000000000000E+00
      0.00000000000000E+00   0.00000000000000E+00  -1.13222669783603E-02  -2.64652264417593E-21  -1.13222669783603E-02
     -2.25191936175111E-16   1.92600000000000E+00   1.92600000000000E+00   0.00000000000000E+00   0.00000000000000E+00
      1.13222669783694E-02   1.83717598200833E-20   1.13222669783694E-02   1.88156516829631E-15   1.00000000000000E+00
      1.00000000000000E+00   0.00000000000000E+00   0.00000000000000E+00   0.00000000000000E+00   0.00000000000000E+00
      0.00000000000000E+00  -1.01346253937984E-16
      6.67000000000000E-01
      0.00000000000000E+00   0.00000000000000E+00   0.00000000000000E+00   0.00000000000000E+00  -5.56935243992225E-15
     -2.74863447950852E-16  -5.84421588787310E-15  -1.53452579022756E-15   0.00000000000000E+00   0.00000000000000E+00
      0.00000000000000E+00   0.00000000000000E+00  -1.15952682321846E-02  -2.74851060017385E-21  -1.15952682321846E-02
     -2.42009881653771E-16   2.00100000000000E+00   2.00100000000000E+00   0.00000000000000E+00   0.00000000000000E+00
      1.15952682321903E-02   1.85786330519194E-20   1.15952682321903E-02   1.93021888607486E-15   1.00000000000000E+00
      1.00000000000000E+00   0.00000000000000E+00   0.00000000000000E+00   0.00000000000000E+00   0.00000000000000E+00
      0.00000000000000E+00  -1.09509314201238E-16
      6.92000000000000E-01
      0.00000000000000E+00   0.00000000000000E+00   0.00000000000000E+00   0.00000000000000E+00  -2.03852531935650E-18
     -2.86211354246137E-16  -2.88249879565494E-16  -1.55720636378451E-15   0.00000000000000E+00   0.00000000000000E+00
      0.00000000000000E+00   0.00000000000000E+00  -1.18650649864296E-02  -2.85372359856630E-21  -1.18650649864296E-02
     -2.58745019003057E-16   2.07600000000000E+00   2.07600000000000E+00   0.00000000000000E+00   0.00000000000000E+00
      1.18650649864299E-02   1.88029459223838E-20   1.18650649864299E-02   1.97866413508780E-15   1.00000000000000E+00
      1.00000000000000E+00   0.00000000000000E+00   0.00000000000000E+00   0.00000000000000E+00   0.00000000000000E+00
      0.00000000000000E+00  -1.17671506165203E-16
      7.17000000000000E-01
      0.00000000000000E+00   0.00000000000000E+00   0.00000000000000E+00   0.00000000000000E+00   3.05798476484673E-18
     -2.96068410962521E-16  -2.93010426197674E-16  -1.57975899141040E-15   0.00000000000000E+00   0.00000000000000E+00
      0.00000000000000E+00   0.00000000000000E+00  -1.21316863353137E-02  -2.95974562659014E-21  -1.21316863353137E-02
     -2.75405785019755E-16   2.15100000000000E+00   2.15100000000000E+00   0.00000000000000E+00   0.00000000000000E+00
      1.21316863353140E-02   1.90244838475282E-20   1.21316863353140E-02   2.02689024809532E-15   1.00000000000000E+00
      1.00000000000000E+00   0.00000000000000E+00   0.00000000000000E+00   0.00000000000000E+00   0.00000000000000E+00
      0.00000000000000E+00  -1.25832814157513E-16
      7.42000000000000E-01
      0.00000000000000E+00   0.00000000000000E+00   0.00000000000000E+00   0.00000000000000E+00  -5.09643032337298E-18
     -3.03610264344832E-16  -3.08706694668204E-16  -1.60216165502725E-15   0.00000000000000E+00   0.00000000000000E+00
      0.00000000000000E+00   0.00000000000000E+00  -1.23951254468370E-02  -3.06636085156120E-21  -1.23951254468370E-02
     -2.91997452175732E-16   2.22600000000000E+00   2.22600000000000E+00   0.00000000000000E+00   0.00000000000000E+00
      1.23951254468373E-02   1.92432286593061E-20   1.23951254468373E-02   2.07488079843361E-15   1.00000000000000E+00
      1.00000000000000E+00   0.00000000000000E+00   0.00000000000000E+00   0.00000000000000E+00   0.00000000000000E+00
      0.00000000000000E+00  -1.33993191887199E-16
      7.67000000000000E-01
      0.00000000000000E+00   0.00000000000000E+00   0.00000000000000E+00   0.00000000000000E+00   4.75682209515866E-18
     -3.09619470033294E-16  -3.04862647938135E-16  -1.62438901046996E-15   0.00000000000000E+00   0.00000000000000E+00
      0.00000000000000E+00   0.00000000000000E+00  -1.26553436740707E-02  -3.17324316685758E-21  -1.26553436740707E-02
     -3.08523282790228E-16   2.30100000000000E+00   2.30100000000000E+00   0.00000000000000E+00   0.00000000000000E+00
      1.26553436740710E-02   1.94591256874583E-20   1.26553436740710E-02   2.12261401134270E-15   1.00000000000000E+00
      1.00000000000000E+00   0.00000000000000E+00   0.00000000000000E+00   0.00000000000000E+00   0.00000000000000E+00
      0.00000000000000E+00  -1.42152554430047E-16
      7.92000000000000E-01
      0.00000000000000E+00   0.00000000000000E+00   0.00000000000000E+00   0.00000000000000E+00   6.45565901793109E-18
     -3.14607879847841E-16  -3.08152220829910E-16  -1.64641570277443E-15   0.00000000000000E+00   0.00000000000000E+00
      0.00000000000000E+00   0.00000000000000E+00  -1.29122971275948E-02  -3.28006059489065E-21  -1.29122971275948E-02
     -3.24983473861426E-16   2.37600000000000E+00   2.37600000000000E+00   0.00000000000000E+00   0.00000000000000E+00
      1.29122971275951E-02   1.96721185549669E-20   1.29122971275951E-02   2.17006499246984E-15   1.00000000000000E+00
      1.00000000000000E+00   0.00000000000000E+00   0.00000000000000E+00   0.00000000000000E+00   0.00000000000000E+00
      0.00000000000000E+00  -1.50310748996291E-16
      8.17000000000000E-01
      0.00000000000000E+00   0.00000000000000E+00   0.00000000000000E+00   0.00000000000000E+00   4.53103527589445E-19
     -3.18332875941362E-16  -3.17879772413772E-16  -1.66821621121014E-15   0.00000000000000E+00   0.00000000000000E+00
      0.00000000000000E+00   0.00000000000000E+00  -1.31659389242029E-02  -3.38658920356736E-21  -1.31659389242029E-02
     -3.41377912100201E-16   2.45100000000000E+00   2.45100000000000E+00   0.00000000000000E+00   0.00000000000000E+00
      1.31659389242032E-02   1.98821464617547E-20   1.31659389242032E-02   2.21720834433196E-15   1.00000000000000E+00
      1.00000000000000E+00   0.00000000000000E+00   0.00000000000000E+00   0.00000000000000E+00   0.00000000000000E+00
      0.00000000000000E+00  -1.58467574108270E-16
      8.42000000000000E-01
      0.00000000000000E+00   0.00000000000000E+00   0.00000000000000E+00   0.00000000000000E+00  -1.13247692400205E-18
     -3.20852570496938E-16  -3.21985047420940E-16  -1.68977072667217E-15   0.00000000000000E+00   0.00000000000000E+00
      0.00000000000000E+00   0.00000000000000E+00  -1.34162537128081E-02  -3.49270702381302E-21  -1.34162537128081E-02
     -3.57707185451383E-16   2.52600000000000E+00   2.52600000000000E+00   0.00000000000000E+00   0.00000000000000E+00
      1.34162537128084E-02   2.00891834767753E-20   1.34162537128084E-02   2.26402518467139E-15   1.00000000000000E+00
      1.00000000000000E+00   0.00000000000000E+00   0.00000000000000E+00   0.00000000000000E+00   0.00000000000000E+00
      0.00000000000000E+00  -1.66622905966075E-16
      8.67000000000000E-01
      0.00000000000000E+00   0.00000000000000E+00   0.00000000000000E+00   0.00000000000000E+00  -2.03852276545439E-18