DF-ISE text

Info {
  version   = 1.0
  type      = xyplot
  datasets  = [
    "time"
    "substrate OuterVoltage" "substrate InnerVoltage" "substrate QuasiFermiPotential" "substrate DisplacementCurrent" "substrate eCurrent"
    "substrate hCurrent" "substrate TotalCurrent" "substrate Charge" "source OuterVoltage" "source InnerVoltage"
    "source QuasiFermiPotential" "source DisplacementCurrent" "source eCurrent" "source hCurrent" "source TotalCurrent"
    "source Charge" "drain OuterVoltage" "drain InnerVoltage" "drain QuasiFermiPotential" "drain DisplacementCurrent"
    "drain eCurrent" "drain hCurrent" "drain TotalCurrent" "drain Charge" "gate OuterVoltage"
    "gate InnerVoltage" "gate QuasiFermiPotential" "gate DisplacementCurrent" "gate eCurrent" "gate hCurrent"
    "gate TotalCurrent" "gate Charge" ]
  functions = [
    Time
    OuterVoltage InnerVoltage QuasiFermiPotential DisplacementCurrent eCurrent
    hCurrent TotalCurrent Charge OuterVoltage InnerVoltage
    QuasiFermiPotential DisplacementCurrent eCurrent hCurrent TotalCurrent
    Charge OuterVoltage InnerVoltage QuasiFermiPotential DisplacementCurrent
    eCurrent hCurrent TotalCurrent Charge OuterVoltage
    InnerVoltage QuasiFermiPotential DisplacementCurrent eCurrent hCurrent
    TotalCurrent Charge ]
}

Data {
      0.00000000000000E+00
      0.00000000000000E+00   0.00000000000000E+00   0.00000000000000E+00   0.00000000000000E+00  -1.68838768660743E-18
     -5.57289493278044E-26  -1.68838774233638E-18  -6.34321788935763E-15   0.00000000000000E+00   0.00000000000000E+00
      0.00000000000000E+00   0.00000000000000E+00   7.15060126350346E-19   3.64124636702266E-26   7.15060162762809E-19
      2.43009044280766E-15   0.00000000000000E+00   0.00000000000000E+00   0.00000000000000E+00   0.00000000000000E+00
      9.73327560256238E-19   1.93173363915577E-26   9.73327579573574E-19   2.43009044280766E-15   1.00000000000000E+00
      1.00000000000000E+00   0.00000000000000E+00   0.00000000000000E+00   0.00000000000000E+00   0.00000000000000E+00
      0.00000000000000E+00   1.48303700374231E-15
      1.00000000000000E-02
      0.00000000000000E+00   0.00000000000000E+00   0.00000000000000E+00   0.00000000000000E+00   1.33745086699582E-16
     -5.65026564484035E-17   7.72424302511781E-17  -6.39826526211279E-15   0.00000000000000E+00   0.00000000000000E+00
      0.00000000000000E+00   0.00000000000000E+00  -4.44331841089147E-17   1.12896731242853E-26  -4.44331840976251E-17
      2.43009044280764E-15   3.00000000000000E-02   3.00000000000000E-02   0.00000000000000E+00   0.00000000000000E+00
     -3.28458490432302E-17   3.66028896769903E-20  -3.28092461535532E-17   2.48769431215014E-15   1.00000000000000E+00
      1.00000000000000E+00   0.00000000000000E+00   0.00000000000000E+00   0.00000000000000E+00   0.00000000000000E+00
      0.00000000000000E+00   1.48048050715501E-15
      2.33333333333333E-02
      0.00000000000000E+00   0.00000000000000E+00   0.00000000000000E+00   0.00000000000000E+00   9.80996671983245E-20
     -1.12370589002268E-16  -1.12272489335070E-16  -6.47131347045020E-15   0.00000000000000E+00   0.00000000000000E+00
      0.00000000000000E+00   0.00000000000000E+00  -5.47445326679443E-17  -2.78122873186077E-26  -5.47445326957566E-17
      2.43009044280761E-15   7.00000000000000E-02   7.00000000000000E-02   0.00000000000000E+00   0.00000000000000E+00
      1.67016421290842E-16   6.00739984431943E-22   1.67017022030826E-16   2.56403067481588E-15   1.00000000000000E+00
      1.00000000000000E+00   0.00000000000000E+00   0.00000000000000E+00   0.00000000000000E+00   0.00000000000000E+00
      0.00000000000000E+00   1.47719235282669E-15
      4.24444444444445E-02
      0.00000000000000E+00   0.00000000000000E+00   0.00000000000000E+00   0.00000000000000E+00  -2.63545409990407E-18
     -1.84290092591724E-16  -1.86925546691629E-16  -6.57541432474278E-15   0.00000000000000E+00   0.00000000000000E+00
      0.00000000000000E+00   0.00000000000000E+00  -5.53884417654725E-17   1.75299689443278E-26  -5.53884417479426E-17
      2.43009044280758E-15   1.27333333333333E-01   1.27333333333333E-01   0.00000000000000E+00   0.00000000000000E+00
      2.42247885850915E-16   6.61025886561870E-20   2.42313988439571E-16   2.67264359130399E-15   1.00000000000000E+00
      1.00000000000000E+00   0.00000000000000E+00   0.00000000000000E+00   0.00000000000000E+00   0.00000000000000E+00
      0.00000000000000E+00   1.47268029063120E-15
      6.74444444444444E-02
      0.00000000000000E+00   0.00000000000000E+00   0.00000000000000E+00   0.00000000000000E+00   2.31928561055661E-18
     -2.91192298901513E-16  -2.88873013290956E-16  -6.71054557264709E-15   0.00000000000000E+00   0.00000000000000E+00
      0.00000000000000E+00   0.00000000000000E+00  -5.86213724250464E-17   4.01155075376889E-26  -5.86213723849308E-17
      2.43009044280754E-15   2.02333333333333E-01   2.02333333333333E-01   0.00000000000000E+00   0.00000000000000E+00
      3.47430311561577E-16   6.40741143104436E-20   3.47494385675887E-16   2.81344253435981E-15   1.00000000000000E+00
      1.00000000000000E+00   0.00000000000000E+00   0.00000000000000E+00   0.00000000000000E+00   0.00000000000000E+00
      0.00000000000000E+00   1.46701259547973E-15
      9.24444444444444E-02
      0.00000000000000E+00   0.00000000000000E+00   0.00000000000000E+00   0.00000000000000E+00   4.73535590309150E-19
     -4.23018825761874E-16  -4.22545290171565E-16  -6.84435636753399E-15   0.00000000000000E+00   0.00000000000000E+00
      0.00000000000000E+00   0.00000000000000E+00  -5.68431644434222E-17  -6.90008388177544E-27  -5.68431644503223E-17
      2.43009044280749E-15   2.77333333333333E-01   2.77333333333333E-01   0.00000000000000E+00   0.00000000000000E+00
      4.79364168945835E-16   2.42856760515547E-20   4.79388454621887E-16   2.95278247996049E-15   1.00000000000000E+00
      1.00000000000000E+00   0.00000000000000E+00   0.00000000000000E+00   0.00000000000000E+00   0.00000000000000E+00
      0.00000000000000E+00   1.46148344476600E-15
      1.17444444444444E-01
      0.00000000000000E+00   0.00000000000000E+00   0.00000000000000E+00   0.00000000000000E+00  -2.43021412555991E-18
     -5.74674893226282E-16  -5.77105107351842E-16  -6.97660548182387E-15   0.00000000000000E+00   0.00000000000000E+00
      0.00000000000000E+00   0.00000000000000E+00  -5.45303427610209E-17  -1.55608655391457E-26  -5.45303427765818E-17
      2.43009044280743E-15   3.52333333333333E-01   3.52333333333333E-01   0.00000000000000E+00   0.00000000000000E+00
      6.31649319126700E-16  -1.38689982759252E-20   6.31635450128424E-16   3.09047848913754E-15   1.00000000000000E+00
      1.00000000000000E+00   0.00000000000000E+00   0.00000000000000E+00   0.00000000000000E+00   0.00000000000000E+00
      0.00000000000000E+00   1.45603654987892E-15
      1.42444444444444E-01
      0.00000000000000E+00   0.00000000000000E+00   0.00000000000000E+00   0.00000000000000E+00   3.00800423134747E-19
     -7.46673237472642E-16  -7.46372437049507E-16  -7.10694728196623E-15   0.00000000000000E+00   0.00000000000000E+00
      0.00000000000000E+00   0.00000000000000E+00  -5.75863402607193E-17   6.99679045289080E-27  -5.75863402537225E-17
      2.43009044280736E-15   4.27333333333333E-01   4.27333333333333E-01   0.00000000000000E+00   0.00000000000000E+00
      8.03888615086260E-16   7.01622169698598E-20   8.03958777303230E-16   3.22618893521437E-15   1.00000000000000E+00
      1.00000000000000E+00   0.00000000000000E+00   0.00000000000000E+00   0.00000000000000E+00   0.00000000000000E+00
      0.00000000000000E+00   1.45066790394451E-15
      1.67444444444444E-01
      0.00000000000000E+00   0.00000000000000E+00   0.00000000000000E+00   0.00000000000000E+00  -3.24277602364759E-18
     -9.53518449877664E-16  -9.56761225901312E-16  -7.23490212434152E-15   0.00000000000000E+00   0.00000000000000E+00
      0.00000000000000E+00   0.00000000000000E+00  -5.43789961518854E-17  -3.10614695485082E-26  -5.43789961829468E-17
      2.43009044280728E-15   5.02333333333333E-01   5.02333333333333E-01   0.00000000000000E+00   0.00000000000000E+00
      1.01107907341169E-15   6.11486725688196E-20   1.01114022208426E-15   3.35941518378561E-15   1.00000000000000E+00
      1.00000000000000E+00   0.00000000000000E+00   0.00000000000000E+00   0.00000000000000E+00   0.00000000000000E+00
      0.00000000000000E+00   1.44539649774863E-15
      1.92444444444444E-01
      0.00000000000000E+00   0.00000000000000E+00   0.00000000000000E+00   0.00000000000000E+00  -2.21654751113253E-18
     -1.20248674664658E-15  -1.20470329415771E-15  -7.35985002170475E-15   0.00000000000000E+00   0.00000000000000E+00
      0.00000000000000E+00   0.00000000000000E+00  -5.59870852669016E-17   2.07055095176961E-27  -5.59870852648310E-17
      2.43009044280718E-15   5.77333333333333E-01   5.77333333333333E-01   0.00000000000000E+00   0.00000000000000E+00
      1.26062733838102E-15   6.30410415248220E-20   1.26069037942254E-15   3.48950893475565E-15   1.00000000000000E+00
      1.00000000000000E+00   0.00000000000000E+00   0.00000000000000E+00   0.00000000000000E+00   0.00000000000000E+00
      0.00000000000000E+00   1.44025064414192E-15
      2.17444444444444E-01
      0.00000000000000E+00   0.00000000000000E+00   0.00000000000000E+00   0.00000000000000E+00  -6.89018696083353E-19
     -1.46813663826885E-15  -1.46882565696493E-15  -7.48109611978552E-15   0.00000000000000E+00   0.00000000000000E+00
      0.00000000000000E+00   0.00000000000000E+00  -5.77047596531789E-17   3.81323752726717E-26  -5.77047596150465E-17
      2.43009044280707E-15   6.52333333333333E-01   6.52333333333333E-01   0.00000000000000E+00   0.00000000000000E+00
      1.52647245594374E-15   5.79606362378468E-20   1.52653041657998E-15   3.61575386021099E-15   1.00000000000000E+00
      1.00000000000000E+00   0.00000000000000E+00   0.00000000000000E+00   0.00000000000000E+00   0.00000000000000E+00
      0.00000000000000E+00   1.43525181676747E-15
      2.42444444444444E-01
      0.00000000000000E+00   0.00000000000000E+00   0.00000000000000E+00   0.00000000000000E+00   4.29971028063716E-18
     -1.68393113056738E-15  -1.67963142028674E-15  -7.59805674068640E-15   0.00000000000000E+00   0.00000000000000E+00
      0.00000000000000E+00   0.00000000000000E+00  -5.43055931122772E-17   2.32954439756191E-26  -5.43055930889817E-17
      2.43009044280698E-15   7.27333333333333E-01   7.27333333333333E-01   0.00000000000000E+00   0.00000000000000E+00
      1.73388316808210E-15   5.38452936240544E-20   1.73393701337572E-15   3.73757495161971E-15   1.00000000000000E+00
      1.00000000000000E+00   0.00000000000000E+00   0.00000000000000E+00   0.00000000000000E+00   0.00000000000000E+00
      0.00000000000000E+00   1.43039134625970E-15
      2.67444444444444E-01
      0.00000000000000E+00   0.00000000000000E+00   0.00000000000000E+00   0.00000000000000E+00   5.19779961828859E-18
     -1.81945257846815E-15  -1.81425477884986E-15  -7.71053011133583E-15   0.00000000000000E+00   0.00000000000000E+00
      0.00000000000000E+00   0.00000000000000E+00  -6.31403191552128E-17   1.15280945832308E-26  -6.31403191436847E-17
      2.43009044280693E-15   8.02333333333333E-01   8.02333333333333E-01   0.00000000000000E+00   0.00000000000000E+00
      1.87736461011431E-15   3.04878792337166E-20   1.87739509799354E-15   3.85481313978626E-15   1.00000000000000E+00
      1.00000000000000E+00   0.00000000000000E+00   0.00000000000000E+00   0.00000000000000E+00   0.00000000000000E+00
      0.00000000000000E+00   1.42562652874265E-15
      2.92444444444444E-01
      0.00000000000000E+00   0.00000000000000E+00   0.00000000000000E+00   0.00000000000000E+00  -1.50613297345161E-18
     -1.89922399975385E-15  -1.90073013272730E-15  -7.81890820888314E-15   0.00000000000000E+00   0.00000000000000E+00
      0.00000000000000E+00   0.00000000000000E+00  -5.65698023197523E-17   2.04224383603056E-26  -5.65698022993299E-17
      2.43009044280689E-15   8.77333333333333E-01   8.77333333333333E-01   0.00000000000000E+00   0.00000000000000E+00
      1.95723330286482E-15   6.66321618134222E-20   1.95729993502663E-15   3.96790874506689E-15   1.00000000000000E+00
      1.00000000000000E+00   0.00000000000000E+00   0.00000000000000E+00   0.00000000000000E+00   0.00000000000000E+00
      0.00000000000000E+00   1.42090902100935E-15
      3.17444444444444E-01
      0.00000000000000E+00   0.00000000000000E+00   0.00000000000000E+00   0.00000000000000E+00   2.80582130691678E-18
     -1.95011259574885E-15  -1.94730677444193E-15  -7.92412052217097E-15   0.00000000000000E+00   0.00000000000000E+00
      0.00000000000000E+00   0.00000000000000E+00  -6.09464779756569E-17  -7.57434078855536E-27  -6.09464779832313E-17
      2.43009044280687E-15   9.52333333333333E-01   9.52333333333333E-01   0.00000000000000E+00   0.00000000000000E+00
      2.00818800449531E-15   6.52479298568598E-20   2.00825325242516E-15   4.07782300102422E-15   1.00000000000000E+00
      1.00000000000000E+00   0.00000000000000E+00   0.00000000000000E+00   0.00000000000000E+00   0.00000000000000E+00
      0.00000000000000E+00   1.41620707833988E-15
      3.42444444444444E-01
      0.00000000000000E+00   0.00000000000000E+00   0.00000000000000E+00   0.00000000000000E+00   2.53318300685213E-18
     -1.98538013850563E-15  -1.98284695549878E-15  -8.02723627003633E-15   0.00000000000000E+00   0.00000000000000E+00
      0.00000000000000E+00   0.00000000000000E+00  -6.07343558252009E-17   6.97264298072415E-28  -6.07343558245036E-17
      2.43009044280686E-15   1.02733333333333E+00   1.02733333333333E+00   0.00000000000000E+00   0.00000000000000E+00
      2.04354856410657E-15   3.27472167118213E-20   2.04358131132328E-15   4.18564071241596E-15   1.00000000000000E+00
      1.00000000000000E+00   0.00000000000000E+00   0.00000000000000E+00   0.00000000000000E+00   0.00000000000000E+00
      0.00000000000000E+00   1.41150511481351E-15
      3.67444444444445E-01
      0.00000000000000E+00   0.00000000000000E+00   0.00000000000000E+00   0.00000000000000E+00   1.72852630296659E-18
     -2.00820987971700E-15  -2.00648135341404E-15  -8.12907295388724E-15   0.00000000000000E+00   0.00000000000000E+00
      0.00000000000000E+00   0.00000000000000E+00  -6.00119710648974E-17   3.80529297143613E-26  -6.00119710268445E-17
      2.43009044280685E-15   1.10233333333333E+00   1.10233333333333E+00   0.00000000000000E+00   0.00000000000000E+00
      2.06648853516453E-15   4.78927634880081E-21   2.06649332444088E-15   4.29218606325282E-15   1.00000000000000E+00
      1.00000000000000E+00   0.00000000000000E+00   0.00000000000000E+00   0.00000000000000E+00   0.00000000000000E+00
      0.00000000000000E+00   1.40679644782757E-15
      3.92444444444445E-01
      0.00000000000000E+00   0.00000000000000E+00   0.00000000000000E+00   0.00000000000000E+00   1.64001093217819E-18
     -2.02269992649342E-15  -2.02105991556125E-15  -8.23011028957558E-15   0.00000000000000E+00   0.00000000000000E+00
      0.00000000000000E+00   0.00000000000000E+00  -5.99935068770958E-17   1.21164758207516E-26  -5.99935068649793E-17
      2.43009044280684E-15   1.17733333333333E+00   1.17733333333333E+00   0.00000000000000E+00   0.00000000000000E+00
      2.08099952143203E-15   5.39009941978579E-20   2.08105342242623E-15   4.39794147630802E-15   1.00000000000000E+00
      1.00000000000000E+00   0.00000000000000E+00   0.00000000000000E+00   0.00000000000000E+00   0.00000000000000E+00
      0.00000000000000E+00   1.40207837046071E-15
      4.17444444444445E-01
      0.00000000000000E+00   0.00000000000000E+00   0.00000000000000E+00   0.00000000000000E+00   1.21126860567611E-18
     -2.03421310668470E-15  -2.03300183807903E-15  -8.33058985414816E-15   0.00000000000000E+00   0.00000000000000E+00
      0.00000000000000E+00   0.00000000000000E+00  -5.96348843737642E-17  -1.28745853661302E-27  -5.96348843750517E-17
      2.43009044280683E-15   1.25233333333333E+00   1.25233333333333E+00   0.00000000000000E+00   0.00000000000000E+00
      2.09258316991687E-15   5.35525372033265E-20   2.09263672245408E-15   4.50314957343640E-15   1.00000000000000E+00
      1.00000000000000E+00   0.00000000000000E+00   0.00000000000000E+00   0.00000000000000E+00   0.00000000000000E+00
      0.00000000000000E+00   1.39734983790493E-15
      4.42444444444445E-01
      0.00000000000000E+00   0.00000000000000E+00   0.00000000000000E+00   0.00000000000000E+00  -1.12001234777140E-18
     -2.04689369590321E-15  -2.04801370825098E-15  -8.43062243973926E-15   0.00000000000000E+00   0.00000000000000E+00
      0.00000000000000E+00   0.00000000000000E+00  -5.75686830362245E-17   2.97040100062980E-27  -5.75686830332541E-17
      2.43009044280708E-15   1.32733333333333E+00   1.32733333333333E+00   0.00000000000000E+00   0.00000000000000E+00
      2.10553128733885E-15   5.11039453893712E-20   2.10558239128424E-15   4.60792149962226E-15   1.00000000000000E+00
      1.00000000000000E+00   0.00000000000000E+00   0.00000000000000E+00   0.00000000000000E+00   0.00000000000000E+00
      0.00000000000000E+00   1.39261049730991E-15
      4.67444444444445E-01
      0.00000000000000E+00   0.00000000000000E+00   0.00000000000000E+00   0.00000000000000E+00   1.11485256458688E-18
     -2.06288534910554E-15  -2.06177049654096E-15  -8.53025431010305E-15   0.00000000000000E+00   0.00000000000000E+00
      0.00000000000000E+00   0.00000000000000E+00  -6.05255073147238E-17  -5.27034635576867E-27  -6.05255073199941E-17
      2.43009044280694E-15   1.40233333333333E+00   1.40233333333333E+00   0.00000000000000E+00   0.00000000000000E+00
      2.12224227203704E-15   5.37318239015622E-20   2.12229600386095E-15   4.71230358363447E-15   1.00000000000000E+00
      1.00000000000000E+00   0.00000000000000E+00   0.00000000000000E+00   0.00000000000000E+00   0.00000000000000E+00
      0.00000000000000E+00   1.38786028366162E-15
      4.92444444444445E-01
      0.00000000000000E+00   0.00000000000000E+00   0.00000000000000E+00   0.00000000000000E+00  -9.48561172235795E-19
     -2.08355666205181E-15  -2.08450522322404E-15  -8.62950096202361E-15   0.00000000000000E+00   0.00000000000000E+00
      0.00000000000000E+00   0.00000000000000E+00  -5.79996365692124E-17   1.52514151363619E-27  -5.79996365676872E-17
      2.43009044280679E-15   1.47733333333333E+00   1.47733333333333E+00   0.00000000000000E+00   0.00000000000000E+00
      2.14245095544069E-15   5.39043510342055E-20   2.14250485979173E-15   4.81631126240256E-15   1.00000000000000E+00
      1.00000000000000E+00   0.00000000000000E+00   0.00000000000000E+00   0.00000000000000E+00   0.00000000000000E+00
      0.00000000000000E+00   1.38309925681427E-15
      5.17444444444445E-01
      0.00000000000000E+00   0.00000000000000E+00   0.00000000000000E+00   0.00000000000000E+00  -5.72374851313224E-19
     -2.11164206587235E-15  -2.11221444072367E-15  -8.72836206760052E-15   0.00000000000000E+00   0.00000000000000E+00
      0.00000000000000E+00   0.00000000000000E+00  -5.81361061814449E-17  -8.39592981946411E-27  -5.81361061898408E-17
      2.43009044280670E-15   1.55233333333333E+00   1.55233333333333E+00   0.00000000000000E+00   0.00000000000000E+00
      2.17029682637553E-15   5.37205379692052E-20   2.17035054691350E-15   4.91994406669559E-15   1.00000000000000E+00
      1.00000000000000E+00   0.00000000000000E+00   0.00000000000000E+00   0.00000000000000E+00   0.00000000000000E+00
      0.00000000000000E+00   1.37832755809824E-15
      5.42444444444445E-01
      0.00000000000000E+00   0.00000000000000E+00   0.00000000000000E+00   0.00000000000000E+00   3.76683691135449E-18
     -2.15144836600065E-15  -2.14768152908930E-15  -8.82682677922214E-15   0.00000000000000E+00   0.00000000000000E+00
      0.00000000000000E+00   0.00000000000000E+00  -6.25328540532546E-17  -3.73376782028256E-27  -6.25328540569884E-17
      2.43009044280667E-15   1.62733333333333E+00   1.62733333333333E+00   0.00000000000000E+00   0.00000000000000E+00
      2.21016054725670E-15   5.38358895861941E-20   2.21021438314629E-15   5.02319091462076E-15   1.00000000000000E+00
      1.00000000000000E+00   0.00000000000000E+00   0.00000000000000E+00   0.00000000000000E+00   0.00000000000000E+00
      0.00000000000000E+00   1.37354542179469E-15
      5.67444444444445E-01
      0.00000000000000E+00   0.00000000000000E+00   0.00000000000000E+00   0.00000000000000E+00  -1.62751158547061E-18
     -2.21009932249212E-15  -2.21172683407759E-15  -8.92487449527794E-15   0.00000000000000E+00   0.00000000000000E+00
      0.00000000000000E+00   0.00000000000000E+00  -5.72059128257613E-17   3.11552514004492E-26  -5.72059127946060E-17
      2.43009044280666E-15   1.70233333333333E+00   1.70233333333333E+00   0.00000000000000E+00   0.00000000000000E+00
      2.26887883605884E-15   5.39108133625763E-20   2.26893274687220E-15   5.12603086280843E-15   1.00000000000000E+00
      1.00000000000000E+00   0.00000000000000E+00   0.00000000000000E+00   0.00000000000000E+00   0.00000000000000E+00
      0.00000000000000E+00   1.36875318966284E-15
      5.92444444444445E-01
      0.00000000000000E+00   0.00000000000000E+00   0.00000000000000E+00   0.00000000000000E+00   2.37906223111727E-18
     -2.29905625243306E-15  -2.29667719020194E-15  -9.02247354926556E-15   0.00000000000000E+00   0.00000000000000E+00
      0.00000000000000E+00   0.00000000000000E+00  -6.12799250836405E-17  -1.90580228557686E-26  -6.12799251026985E-17
      2.43009044280662E-15   1.77733333333333E+00   1.77733333333333E+00   0.00000000000000E+00   0.00000000000000E+00
      2.35790314737893E-15   5.39679257026682E-20   2.35795711530464E-15   5.22843180481457E-15   1.00000000000000E+00
      1.00000000000000E+00   0.00000000000000E+00   0.00000000000000E+00   0.00000000000000E+00   0.00000000000000E+00
      0.00000000000000E+00   1.36395130164435E-15
      6.17444444444445E-01
      0.00000000000000E+00   0.00000000000000E+00   0.00000000000000E+00   0.00000000000000E+00  -5.91427242050225E-19
     -2.42793566379090E-15  -2.42852709103295E-15  -9.11957906177436E-15   0.00000000000000E+00   0.00000000000000E+00
      0.00000000000000E+00   0.00000000000000E+00  -5.83768866547649E-17   6.88722280506282E-27  -5.83768866478777E-17
      2.43009044280656E-15   1.85233333333333E+00   1.85233333333333E+00   0.00000000000000E+00   0.00000000000000E+00
      2.48684999904155E-15   5.39786392789795E-20   2.48690397768083E-15   5.33034834899557E-15   1.00000000000000E+00
      1.00000000000000E+00   0.00000000000000E+00   0.00000000000000E+00   0.00000000000000E+00   0.00000000000000E+00
      0.00000000000000E+00   1.35914026997220E-15
      6.42444444444445E-01
      0.00000000000000E+00   0.00000000000000E+00   0.00000000000000E+00   0.00000000000000E+00   2.08753988416451E-18
     -2.58944066489729E-15  -2.58735312501312E-15  -9.21613033554494E-15   0.00000000000000E+00   0.00000000000000E+00
      0.00000000000000E+00   0.00000000000000E+00  -6.11224117441788E-17  -1.61972284733337E-26  -6.11224117603760E-17
      2.43009044280649E-15   1.92733333333333E+00   1.92733333333333E+00   0.00000000000000E+00   0.00000000000000E+00
      2.64842155088246E-15   5.39858910364968E-20   2.64847553677350E-15   5.43171923612433E-15   1.00000000000000E+00
      1.00000000000000E+00   0.00000000000000E+00   0.00000000000000E+00   0.00000000000000E+00   0.00000000000000E+00
      0.00000000000000E+00   1.35432065661410E-15
      6.67444444444445E-01
      0.00000000000000E+00   0.00000000000000E+00   0.00000000000000E+00   0.00000000000000E+00  -8.97045588781620E-19
     -2.74960011181680E-15  -2.75049715740558E-15  -9.31204701843311E-15   0.00000000000000E+00   0.00000000000000E+00
      0.00000000000000E+00   0.00000000000000E+00  -5.82032178500224E-17   1.39088472772811E-26  -5.82032178361136E-17
      2.43009044280651E-15   2.00233333333333E+00   2.00233333333333E+00   0.00000000000000E+00   0.00000000000000E+00
      2.80864637955749E-15   5.39956842063251E-20   2.80870037524169E-15   5.53246351593198E-15   1.00000000000000E+00
      1.00000000000000E+00   0.00000000000000E+00   0.00000000000000E+00   0.00000000000000E+00   0.00000000000000E+00
      0.00000000000000E+00   1.34949305969461E-15
      6.92444444444445E-01
      0.00000000000000E+00   0.00000000000000E+00   0.00000000000000E+00   0.00000000000000E+00   1.75685758624981E-18
     -2.86926712330125E-15  -2.86751026571500E-15  -9.40722254705248E-15   0.00000000000000E+00   0.00000000000000E+00
      0.00000000000000E+00   0.00000000000000E+00  -6.09225797282598E-17   3.76685011075565E-26  -6.09225796905913E-17
      2.43009044280666E-15   2.07733333333333E+00   2.07733333333333E+00   0.00000000000000E+00   0.00000000000000E+00
      2.92837884273800E-15   5.40026675852126E-20   2.92843284540559E-15   5.63247400583946E-15   1.00000000000000E+00
      1.00000000000000E+00   0.00000000000000E+00   0.00000000000000E+00   0.00000000000000E+00   0.00000000000000E+00
      0.00000000000000E+00   1.34465809840637E-15
      7.17444444444445E-01
      0.00000000000000E+00   0.00000000000000E+00   0.00000000000000E+00   0.00000000000000E+00  -2.11146061437542E-18
     -2.93920146929132E-15  -2.94131292990570E-15  -9.50151421742315E-15   0.00000000000000E+00   0.00000000000000E+00
      0.00000000000000E+00   0.00000000000000E+00  -5.71210296501162E-17  -2.27550281186501E-26  -5.71210296728712E-17
      2.43009044280690E-15   2.15233333333333E+00   2.15233333333333E+00   0.00000000000000E+00   0.00000000000000E+00
      2.99837994962854E-15   5.40099500369332E-20   2.99843395957857E-15   5.73160738709802E-15   1.00000000000000E+00
      1.00000000000000E+00   0.00000000000000E+00   0.00000000000000E+00   0.00000000000000E+00   0.00000000000000E+00
      0.00000000000000E+00   1.33981638751823E-15
      7.42444444444445E-01
      0.00000000000000E+00   0.00000000000000E+00   0.00000000000000E+00   0.00000000000000E+00  -3.64287040760417E-18
     -2.97527156996040E-15  -2.97891444036800E-15  -9.59473174229410E-15   0.00000000000000E+00   0.00000000000000E+00
      0.00000000000000E+00   0.00000000000000E+00  -5.56556700155797E-17  -2.88173046247049E-26  -5.56556700443970E-17
      2.43009044280729E-15   2.22733333333333E+00   2.22733333333333E+00   0.00000000000000E+00   0.00000000000000E+00
      3.03451609264418E-15   5.40177682134610E-20   3.03457011041239E-15   5.82967279328575E-15   1.00000000000000E+00
      1.00000000000000E+00   0.00000000000000E+00   0.00000000000000E+00   0.00000000000000E+00   0.00000000000000E+00
      0.00000000000000E+00   1.33496850620104E-15
      7.67444444444445E-01
      0.00000000000000E+00   0.00000000000000E+00   0.00000000000000E+00   0.00000000000000E+00  -4.09413732843424E-18
     -2.99457258979430E-15  -2.99866672712273E-15  -9.68663005307070E-15   0.00000000000000E+00   0.00000000000000E+00
      0.00000000000000E+00   0.00000000000000E+00  -5.52694921077334E-17   1.83320897448436E-26  -5.52694920894013E-17
      2.43009044280644E-15   2.30233333333333E+00   2.30233333333333E+00   0.00000000000000E+00   0.00000000000000E+00
      3.05388219416247E-15   5.40250496642340E-20   3.05393621921214E-15   5.92642463664476E-15   1.00000000000000E+00
      1.00000000000000E+00   0.00000000000000E+00   0.00000000000000E+00   0.00000000000000E+00   0.00000000000000E+00
      0.00000000000000E+00   1.33011497361949E-15
      7.92444444444445E-01
      0.00000000000000E+00   0.00000000000000E+00   0.00000000000000E+00   0.00000000000000E+00   1.23226216962368E-18
     -3.00742881848080E-15  -3.00619655631118E-15  -9.77691806545699E-15   0.00000000000000E+00   0.00000000000000E+00
      0.00000000000000E+00   0.00000000000000E+00  -6.06602964790789E-17   1.57723160400866E-27  -6.06602964775017E-17
      2.43009044280643E-15   2.37733333333333E+00   2.37733333333333E+00   0.00000000000000E+00   0.00000000000000E+00
      3.06680282117993E-15   5.40316087523006E-20   3.06685685278868E-15   6.02157138355304E-15   1.00000000000000E+00
      1.00000000000000E+00   0.00000000000000E+00   0.00000000000000E+00   0.00000000000000E+00   0.00000000000000E+00
      0.00000000000000E+00   1.32525623909750E-15
      8.17444444444445E-01
      0.00000000000000E+00   0.00000000000000E+00   0.00000000000000E+00   0.00000000000000E+00   7.48408525329240E-19
     -3.01895819137830E-15  -3.01820978285298E-15  -9.86530158127613E-15   0.00000000000000E+00   0.00000000000000E+00
      0.00000000000000E+00   0.00000000000000E+00  -6.02403946541057E-17  -6.23174048994683E-27  -6.02403946603375E-17
      2.43009044280643E-15   2.45233333333333E+00   2.45233333333333E+00   0.00000000000000E+00   0.00000000000000E+00
      3.07839613959516E-15   5.40379181510863E-20   3.07845017751331E-15   6.11481845261315E-15   1.00000000000000E+00
      1.00000000000000E+00   0.00000000000000E+00   0.00000000000000E+00   0.00000000000000E+00   0.00000000000000E+00
      0.00000000000000E+00   1.32039268585655E-15
      8.42444444444445E-01
      0.00000000000000E+00   0.00000000000000E+00   0.00000000000000E+00   0.00000000000000E+00   9.14575165957307E-19
     -3.03083183603564E-15  -3.02991726086968E-15  -9.95157322600533E-15   0.00000000000000E+00   0.00000000000000E+00
      0.00000000000000E+00   0.00000000000000E+00  -6.04700533183429E-17  -5.72040042187407E-27  -6.04700533240633E-17
      2.43009044280642E-15   2.52733333333333E+00   2.52733333333333E+00   0.00000000000000E+00   0.00000000000000E+00
      3.09033327022747E-15   5.40439662735776E-20   3.09038731419374E-15   6.20595814136596E-15   1.00000000000000E+00
      1.00000000000000E+00   0.00000000000000E+00   0.00000000000000E+00   0.00000000000000E+00   0.00000000000000E+00
      0.00000000000000E+00   1.31552464183294E-15
      8.67444444444445E-01
      0.00000000000000E+00   0.00000000000000E+00   0.00000000000000E+00   0.00000000000000E+00   5.21551954973645E-19