DF-ISE text

Info {
  version   = 1.0
  type      = xyplot
  datasets  = [
    "time"
    "substrate OuterVoltage" "substrate InnerVoltage" "substrate QuasiFermiPotential" "substrate DisplacementCurrent" "substrate eCurrent"
    "substrate hCurrent" "substrate TotalCurrent" "substrate Charge" "source OuterVoltage" "source InnerVoltage"
    "source QuasiFermiPotential" "source DisplacementCurrent" "source eCurrent" "source hCurrent" "source TotalCurrent"
    "source Charge" "drain OuterVoltage" "drain InnerVoltage" "drain QuasiFermiPotential" "drain DisplacementCurrent"
    "drain eCurrent" "drain hCurrent" "drain TotalCurrent" "drain Charge" "gate OuterVoltage"
    "gate InnerVoltage" "gate QuasiFermiPotential" "gate DisplacementCurrent" "gate eCurrent" "gate hCurrent"
    "gate TotalCurrent" "gate Charge" ]
  functions = [
    Time
    OuterVoltage InnerVoltage QuasiFermiPotential DisplacementCurrent eCurrent
    hCurrent TotalCurrent Charge OuterVoltage InnerVoltage
    QuasiFermiPotential DisplacementCurrent eCurrent hCurrent TotalCurrent
    Charge OuterVoltage InnerVoltage QuasiFermiPotential DisplacementCurrent
    eCurrent hCurrent TotalCurrent Charge OuterVoltage
    InnerVoltage QuasiFermiPotential DisplacementCurrent eCurrent hCurrent
    TotalCurrent Charge ]
}

Data {
      0.00000000000000E+00
      0.00000000000000E+00   0.00000000000000E+00   0.00000000000000E+00   0.00000000000000E+00   1.31648019830759E-22
      5.99224437604060E-24   1.37640264206799E-22  -3.90746747553676E-15   0.00000000000000E+00   0.00000000000000E+00
      0.00000000000000E+00   0.00000000000000E+00  -5.14655767024225E-23  -4.47404371025708E-24  -5.59396204126796E-23
      1.82013813078121E-15   0.00000000000000E+00   0.00000000000000E+00   0.00000000000000E+00   0.00000000000000E+00
     -8.01824429418626E-23  -1.51820085225764E-24  -8.17006437941202E-23   1.82013813078121E-15   0.00000000000000E+00
      0.00000000000000E+00   0.00000000000000E+00   0.00000000000000E+00   0.00000000000000E+00   0.00000000000000E+00
      0.00000000000000E+00   2.67191213974328E-16
      1.00000000000000E-02
      0.00000000000000E+00   0.00000000000000E+00   0.00000000000000E+00   0.00000000000000E+00   1.46036128759796E-19
     -4.31576851375388E-17  -4.30116490087790E-17  -3.94870555816614E-15   0.00000000000000E+00   0.00000000000000E+00
      0.00000000000000E+00   0.00000000000000E+00  -1.08277655153898E-19  -1.31107459796938E-24  -1.08278966228496E-19
      1.82013813078119E-15   3.00000000000000E-02   3.00000000000000E-02   0.00000000000000E+00   0.00000000000000E+00
      4.30986449696720E-17   2.12830053354296E-20   4.31199279750074E-17   1.86375761134072E-15   0.00000000000000E+00
      0.00000000000000E+00   0.00000000000000E+00   0.00000000000000E+00   0.00000000000000E+00   0.00000000000000E+00
      0.00000000000000E+00   2.64809816044231E-16
      2.33333333333333E-02
      0.00000000000000E+00   0.00000000000000E+00   0.00000000000000E+00   0.00000000000000E+00   1.75610007269632E-17
     -8.12009610214485E-17  -6.36399602944853E-17  -4.00337631486430E-15   0.00000000000000E+00   0.00000000000000E+00
      0.00000000000000E+00   0.00000000000000E+00  -1.44548006153679E-19  -2.26171683507779E-24  -1.44550267870514E-19
      1.82013813078116E-15   7.00000000000000E-02   7.00000000000000E-02   0.00000000000000E+00   0.00000000000000E+00
      6.40146665366275E-17  -2.30155974271576E-19   6.37845105623559E-17   1.92158498491701E-15   0.00000000000000E+00
      0.00000000000000E+00   0.00000000000000E+00   0.00000000000000E+00   0.00000000000000E+00   0.00000000000000E+00
      0.00000000000000E+00   2.61653199166118E-16
      4.28888888888889E-02
      0.00000000000000E+00   0.00000000000000E+00   0.00000000000000E+00   0.00000000000000E+00  -6.26756875194878E-20
     -1.22955515804950E-16  -1.23018191492470E-16  -4.08294349728267E-15   0.00000000000000E+00   0.00000000000000E+00
      0.00000000000000E+00   0.00000000000000E+00  -1.50650613578514E-19   7.42174753696347E-25  -1.50649871403760E-19
      1.82013813078114E-15   1.28666666666667E-01   1.28666666666667E-01   0.00000000000000E+00   0.00000000000000E+00
      1.23122087358250E-16   4.67540056230043E-20   1.23168841363873E-16   2.00574034661261E-15   0.00000000000000E+00
      0.00000000000000E+00   0.00000000000000E+00   0.00000000000000E+00   0.00000000000000E+00   0.00000000000000E+00
      0.00000000000000E+00   2.57065019888918E-16
      6.78888888888889E-02
      0.00000000000000E+00   0.00000000000000E+00   0.00000000000000E+00   0.00000000000000E+00  -6.25233452981685E-20
     -1.80225816423177E-16  -1.80288339768475E-16  -4.18358669251093E-15   0.00000000000000E+00   0.00000000000000E+00
      0.00000000000000E+00   0.00000000000000E+00  -1.50682582173809E-19  -7.12085818204904E-25  -1.50683294259628E-19
      1.82013813078112E-15   2.03666666666667E-01   2.03666666666667E-01   0.00000000000000E+00   0.00000000000000E+00
      1.80399668563941E-16   3.93544987934712E-20   1.80439023062735E-16   2.11217509212245E-15   0.00000000000000E+00
      0.00000000000000E+00   0.00000000000000E+00   0.00000000000000E+00   0.00000000000000E+00   0.00000000000000E+00
      0.00000000000000E+00   2.51273469607364E-16
      9.28888888888889E-02
      0.00000000000000E+00   0.00000000000000E+00   0.00000000000000E+00   0.00000000000000E+00  -6.38136348496668E-20
     -2.63713448191404E-16  -2.63777261826253E-16  -4.28295182635744E-15   0.00000000000000E+00   0.00000000000000E+00
      0.00000000000000E+00   0.00000000000000E+00  -1.50893526049627E-19   3.97123911787571E-25  -1.50893128925715E-19
      1.82013813078107E-15   2.78666666666667E-01   2.78666666666667E-01   0.00000000000000E+00   0.00000000000000E+00
      2.63888404445009E-16   3.97505101710029E-20   2.63928154955180E-16   2.21725873145159E-15   0.00000000000000E+00
      0.00000000000000E+00   0.00000000000000E+00   0.00000000000000E+00   0.00000000000000E+00   0.00000000000000E+00
      0.00000000000000E+00   2.45554964124773E-16
      1.17888888888889E-01
      0.00000000000000E+00   0.00000000000000E+00   0.00000000000000E+00   0.00000000000000E+00  -6.29340726660392E-20
     -3.79577040528917E-16  -3.79639974601583E-16  -4.38094121229708E-15   0.00000000000000E+00   0.00000000000000E+00
      0.00000000000000E+00   0.00000000000000E+00  -1.50974308067749E-19   2.15749917670127E-24  -1.50972150568573E-19
      1.82013813078102E-15   3.53666666666667E-01   3.53666666666667E-01   0.00000000000000E+00   0.00000000000000E+00
      3.79751299003475E-16   3.96477486762837E-20   3.79790946752151E-16   2.32091795028969E-15   0.00000000000000E+00
      0.00000000000000E+00   0.00000000000000E+00   0.00000000000000E+00   0.00000000000000E+00   0.00000000000000E+00
      0.00000000000000E+00   2.39885131226357E-16
      1.42888888888889E-01
      0.00000000000000E+00   0.00000000000000E+00   0.00000000000000E+00   0.00000000000000E+00  -6.19005338509481E-20
     -5.29011655733150E-16  -5.29073556267001E-16  -4.47743161368409E-15   0.00000000000000E+00   0.00000000000000E+00
      0.00000000000000E+00   0.00000000000000E+00  -1.51128853796362E-19   7.88616360183986E-25  -1.51128065180002E-19
      1.82013813078094E-15   4.28666666666667E-01   4.28666666666667E-01   0.00000000000000E+00   0.00000000000000E+00
      5.29185033959863E-16   3.96503723185128E-20   5.29224684332181E-16   2.42305610413810E-15   0.00000000000000E+00
      0.00000000000000E+00   0.00000000000000E+00   0.00000000000000E+00   0.00000000000000E+00   0.00000000000000E+00
      0.00000000000000E+00   2.34237378765046E-16
      1.67888888888889E-01
      0.00000000000000E+00   0.00000000000000E+00   0.00000000000000E+00   0.00000000000000E+00  -6.27869945993834E-20
     -7.17465161485653E-16  -7.17527948480253E-16  -4.57222487486072E-15   0.00000000000000E+00   0.00000000000000E+00
      0.00000000000000E+00   0.00000000000000E+00  -1.51660565495001E-19  -1.20964871878473E-24  -1.51661775143719E-19
      1.82013813078085E-15   5.03666666666667E-01   5.03666666666667E-01   0.00000000000000E+00   0.00000000000000E+00
      7.17639960745885E-16   3.96495095121524E-20   7.17679610255397E-16   2.52349389943262E-15   0.00000000000000E+00
      0.00000000000000E+00   0.00000000000000E+00   0.00000000000000E+00   0.00000000000000E+00   0.00000000000000E+00
      0.00000000000000E+00   2.28592844647245E-16
      1.92888888888889E-01
      0.00000000000000E+00   0.00000000000000E+00   0.00000000000000E+00   0.00000000000000E+00  -6.30386855466560E-20
     -9.42777017903700E-16  -9.42840056589247E-16  -4.66499396515318E-15   0.00000000000000E+00   0.00000000000000E+00
      0.00000000000000E+00   0.00000000000000E+00  -1.51929861690179E-19  -3.82262253565268E-24  -1.51933684312715E-19
      1.82013813078074E-15   5.78666666666667E-01   5.78666666666667E-01   0.00000000000000E+00   0.00000000000000E+00
      9.42952341727985E-16   3.96485455752936E-20   9.42991990273560E-16   2.62191454146705E-15   0.00000000000000E+00
      0.00000000000000E+00   0.00000000000000E+00   0.00000000000000E+00   0.00000000000000E+00   0.00000000000000E+00
      0.00000000000000E+00   2.22941292905378E-16
      2.17888888888889E-01
      0.00000000000000E+00   0.00000000000000E+00   0.00000000000000E+00   0.00000000000000E+00  -6.11048339234303E-20
     -1.14914354966984E-15  -1.14920465450376E-15  -4.75528094283284E-15   0.00000000000000E+00   0.00000000000000E+00
      0.00000000000000E+00   0.00000000000000E+00  -1.52010514236203E-19  -7.75546660255425E-25  -1.52011289782863E-19
      1.82013813078064E-15   6.53666666666667E-01   6.53666666666667E-01   0.00000000000000E+00   0.00000000000000E+00
      1.14931710739370E-15   3.95583998430111E-20   1.14935666579355E-15   2.71786477075972E-15   0.00000000000000E+00
      0.00000000000000E+00   0.00000000000000E+00   0.00000000000000E+00   0.00000000000000E+00   0.00000000000000E+00
      0.00000000000000E+00   2.17278041292474E-16
      2.42888888888889E-01
      0.00000000000000E+00   0.00000000000000E+00   0.00000000000000E+00   0.00000000000000E+00  -6.34225408152872E-20
     -1.27814532443856E-15  -1.27820874697938E-15  -4.84261527558545E-15   0.00000000000000E+00   0.00000000000000E+00
      0.00000000000000E+00   0.00000000000000E+00  -1.52202632600538E-19  -1.17237006072110E-24  -1.52203804970598E-19
      1.82013813078058E-15   7.28666666666667E-01   7.28666666666667E-01   0.00000000000000E+00   0.00000000000000E+00
      1.27832129237163E-15   3.96584127205065E-20   1.27836095078435E-15   2.81087590615861E-15   0.00000000000000E+00
      0.00000000000000E+00   0.00000000000000E+00   0.00000000000000E+00   0.00000000000000E+00   0.00000000000000E+00
      0.00000000000000E+00   2.11601238646267E-16
      2.67888888888889E-01
      0.00000000000000E+00   0.00000000000000E+00   0.00000000000000E+00   0.00000000000000E+00  -6.35094878708071E-20
     -1.34913629966190E-15  -1.34919980914977E-15  -4.92679176997834E-15   0.00000000000000E+00   0.00000000000000E+00
      0.00000000000000E+00   0.00000000000000E+00  -1.52444249831810E-19   2.24487037076966E-24  -1.52442004961439E-19
      1.82013813078054E-15   8.03666666666667E-01   8.03666666666667E-01   0.00000000000000E+00   0.00000000000000E+00
      1.34931258590099E-15   3.96652537522822E-20   1.34935225115474E-15   2.90074332955770E-15   0.00000000000000E+00
      0.00000000000000E+00   0.00000000000000E+00   0.00000000000000E+00   0.00000000000000E+00   0.00000000000000E+00
      0.00000000000000E+00   2.05910309640098E-16
      2.92888888888889E-01
      0.00000000000000E+00   0.00000000000000E+00   0.00000000000000E+00   0.00000000000000E+00  -6.34124723882681E-20
     -1.39343652870434E-15  -1.39349994117673E-15  -5.00813045811176E-15   0.00000000000000E+00   0.00000000000000E+00
      0.00000000000000E+00   0.00000000000000E+00  -1.52807065356937E-19   2.24674753957182E-24  -1.52804818609397E-19
      1.82013813078052E-15   8.78666666666667E-01   8.78666666666667E-01   0.00000000000000E+00   0.00000000000000E+00
      1.39361307393839E-15   3.96720569439320E-20   1.39365274599533E-15   2.98778713136236E-15   0.00000000000000E+00
      0.00000000000000E+00   0.00000000000000E+00   0.00000000000000E+00   0.00000000000000E+00   0.00000000000000E+00
      0.00000000000000E+00   2.00205195968875E-16
      3.17888888888889E-01
      0.00000000000000E+00   0.00000000000000E+00   0.00000000000000E+00   0.00000000000000E+00  -6.35917321967943E-20
     -1.42076028757580E-15  -1.42082387930800E-15  -5.08737091575225E-15   0.00000000000000E+00   0.00000000000000E+00
      0.00000000000000E+00   0.00000000000000E+00  -1.53014538713675E-19  -1.66667320602987E-24  -1.53016205386881E-19
      1.82013813078051E-15   9.53666666666667E-01   9.53666666666667E-01   0.00000000000000E+00   0.00000000000000E+00
      1.42093721760394E-15   3.96779094540491E-20   1.42097689551339E-15   3.07274677330966E-15   0.00000000000000E+00
      0.00000000000000E+00   0.00000000000000E+00   0.00000000000000E+00   0.00000000000000E+00   0.00000000000000E+00
      0.00000000000000E+00   1.94486011662082E-16
      3.42888888888889E-01
      0.00000000000000E+00   0.00000000000000E+00   0.00000000000000E+00   0.00000000000000E+00  -6.33768296455035E-20
     -1.43752115837024E-15  -1.43758453519988E-15  -5.16527277502776E-15   0.00000000000000E+00   0.00000000000000E+00
      0.00000000000000E+00   0.00000000000000E+00  -1.53549468735677E-19   4.19553726970534E-25  -1.53549049181950E-19
      1.82013813078050E-15   1.02866666666667E+00   1.02866666666667E+00   0.00000000000000E+00   0.00000000000000E+00
      1.43769839835376E-15   3.96858953086502E-20   1.43773808424906E-15   3.15638174844717E-15   0.00000000000000E+00
      0.00000000000000E+00   0.00000000000000E+00   0.00000000000000E+00   0.00000000000000E+00   0.00000000000000E+00
      0.00000000000000E+00   1.88752895800092E-16
      3.67888888888889E-01
      0.00000000000000E+00   0.00000000000000E+00   0.00000000000000E+00   0.00000000000000E+00  -6.38800949502517E-20
     -1.45070352560798E-15  -1.45076740570293E-15  -5.24236240371270E-15   0.00000000000000E+00   0.00000000000000E+00
      0.00000000000000E+00   0.00000000000000E+00  -1.53361125494195E-19   6.97276208800307E-25  -1.53360428217986E-19
      1.82013813078049E-15   1.10366666666667E+00   1.10366666666667E+00   0.00000000000000E+00   0.00000000000000E+00
      1.45088107351027E-15   3.96926208798988E-20   1.45092076613115E-15   3.23921831952502E-15   0.00000000000000E+00
      0.00000000000000E+00   0.00000000000000E+00   0.00000000000000E+00   0.00000000000000E+00   0.00000000000000E+00
      0.00000000000000E+00   1.83005953407184E-16
      3.92888888888889E-01
      0.00000000000000E+00   0.00000000000000E+00   0.00000000000000E+00   0.00000000000000E+00  -6.40091603815067E-20
     -1.46440235044502E-15  -1.46446635960540E-15  -5.31892998018144E-15   0.00000000000000E+00   0.00000000000000E+00
      0.00000000000000E+00   0.00000000000000E+00  -1.53544945934832E-19   5.25472384322358E-25  -1.53544420462448E-19
      1.82013813078048E-15   1.17866666666667E+00   1.17866666666667E+00   0.00000000000000E+00   0.00000000000000E+00
      1.46458020472594E-15   3.96992999259983E-20   1.46461990402586E-15   3.32154661852259E-15   0.00000000000000E+00
      0.00000000000000E+00   0.00000000000000E+00   0.00000000000000E+00   0.00000000000000E+00   0.00000000000000E+00
      0.00000000000000E+00   1.77245230878360E-16
      4.17888888888889E-01
      0.00000000000000E+00   0.00000000000000E+00   0.00000000000000E+00   0.00000000000000E+00  -6.34928440612418E-20
     -1.48001009403474E-15  -1.48007358687880E-15  -5.39511101084846E-15   0.00000000000000E+00   0.00000000000000E+00
      0.00000000000000E+00   0.00000000000000E+00  -1.53806412587085E-19  -4.93585644840472E-25  -1.53806906172729E-19
      1.82013813078006E-15   1.25366666666667E+00   1.25366666666667E+00   0.00000000000000E+00   0.00000000000000E+00
      1.48018878162904E-15   3.86121559267324E-20   1.48022739378497E-15   3.40350217551218E-15   0.00000000000000E+00
      0.00000000000000E+00   0.00000000000000E+00   0.00000000000000E+00   0.00000000000000E+00   0.00000000000000E+00
      0.00000000000000E+00   1.71470704556226E-16
      4.42888888888889E-01
      0.00000000000000E+00   0.00000000000000E+00   0.00000000000000E+00   0.00000000000000E+00  -6.29424710421071E-20
     -1.49806180385031E-15  -1.49812474632135E-15  -5.47095434152919E-15   0.00000000000000E+00   0.00000000000000E+00
      0.00000000000000E+00   0.00000000000000E+00  -1.54331388976593E-19  -9.16700333894285E-25  -1.54332305676927E-19
      1.82013813077979E-15   1.32866666666667E+00   1.32866666666667E+00   0.00000000000000E+00   0.00000000000000E+00
      1.49824405868345E-15   3.50199435729908E-20   1.49827907862703E-15   3.48513393167198E-15   0.00000000000000E+00
      0.00000000000000E+00   0.00000000000000E+00   0.00000000000000E+00   0.00000000000000E+00   0.00000000000000E+00
      0.00000000000000E+00   1.65682279077417E-16
      4.67888888888889E-01
      0.00000000000000E+00   0.00000000000000E+00   0.00000000000000E+00   0.00000000000000E+00  -6.38089901408089E-20
     -1.51972021167611E-15  -1.51978402066626E-15  -5.54646378257088E-15   0.00000000000000E+00   0.00000000000000E+00
      0.00000000000000E+00   0.00000000000000E+00  -1.54378097402753E-19  -6.17753088305267E-25  -1.54378715155841E-19
      1.82013813077927E-15   1.40366666666667E+00   1.40366666666667E+00   0.00000000000000E+00   0.00000000000000E+00
      1.51989958020899E-15   3.88191724176835E-20   1.51993839938141E-15   3.56644585200459E-15   0.00000000000000E+00
      0.00000000000000E+00   0.00000000000000E+00   0.00000000000000E+00   0.00000000000000E+00   0.00000000000000E+00
      0.00000000000000E+00   1.59879799787011E-16
      4.92888888888889E-01
      0.00000000000000E+00   0.00000000000000E+00   0.00000000000000E+00   0.00000000000000E+00  -6.39920568901190E-20
     -1.54546421146688E-15  -1.54552820352377E-15  -5.62162257232252E-15   0.00000000000000E+00   0.00000000000000E+00
      0.00000000000000E+00   0.00000000000000E+00  -1.54749851081071E-19   9.08814804650784E-25  -1.54748942266267E-19
      1.82013813078044E-15   1.47866666666667E+00   1.47866666666667E+00   0.00000000000000E+00   0.00000000000000E+00
      1.54564322509723E-15   3.97273688097739E-20   1.54568295246604E-15   3.64742135658708E-15   0.00000000000000E+00
      0.00000000000000E+00   0.00000000000000E+00   0.00000000000000E+00   0.00000000000000E+00   0.00000000000000E+00
      0.00000000000000E+00   1.54063084954993E-16
      5.17888888888889E-01
      0.00000000000000E+00   0.00000000000000E+00   0.00000000000000E+00   0.00000000000000E+00  -6.41202150936891E-20
     -1.57266139712514E-15  -1.57272551734023E-15  -5.69640932096277E-15   0.00000000000000E+00   0.00000000000000E+00
      0.00000000000000E+00   0.00000000000000E+00  -1.54905095144979E-19  -6.98035783320347E-26  -1.54905164948557E-19
      1.82013813078042E-15   1.55366666666667E+00   1.55366666666667E+00   0.00000000000000E+00   0.00000000000000E+00
      1.57284068837249E-15   3.97341326942159E-20   1.57288042250518E-15   3.72803921207560E-15   0.00000000000000E+00
      0.00000000000000E+00   0.00000000000000E+00   0.00000000000000E+00   0.00000000000000E+00   0.00000000000000E+00
      0.00000000000000E+00   1.48231978106735E-16
      5.42888888888889E-01
      0.00000000000000E+00   0.00000000000000E+00   0.00000000000000E+00   0.00000000000000E+00  -6.41948262788545E-20
     -1.60021173828393E-15  -1.60027593311021E-15  -5.77080897117856E-15   0.00000000000000E+00   0.00000000000000E+00
      0.00000000000000E+00   0.00000000000000E+00  -1.55109850468396E-19   1.36036135408862E-24  -1.55108490107042E-19
      1.82013813078041E-15   1.62866666666667E+00   1.62866666666667E+00   0.00000000000000E+00   0.00000000000000E+00
      1.60039130098051E-15   3.97406198167739E-20   1.60043104160032E-15   3.80828443221576E-15   0.00000000000000E+00
      0.00000000000000E+00   0.00000000000000E+00   0.00000000000000E+00   0.00000000000000E+00   0.00000000000000E+00
      0.00000000000000E+00   1.42386408182392E-16
      5.67888888888889E-01
      0.00000000000000E+00   0.00000000000000E+00   0.00000000000000E+00   0.00000000000000E+00  -6.41712632665975E-20
     -1.63538130545557E-15  -1.63544547671884E-15  -5.84481709955472E-15   0.00000000000000E+00   0.00000000000000E+00
      0.00000000000000E+00   0.00000000000000E+00  -1.55409252477225E-19   2.24937404610773E-24  -1.55407003103179E-19
      1.82013813078039E-15   1.70366666666667E+00   1.70366666666667E+00   0.00000000000000E+00   0.00000000000000E+00
      1.63556113686864E-15   3.97468533027716E-20   1.63560088372195E-15   3.88815253560199E-15   0.00000000000000E+00
      0.00000000000000E+00   0.00000000000000E+00   0.00000000000000E+00   0.00000000000000E+00   0.00000000000000E+00
      0.00000000000000E+00   1.36526433172333E-16
      5.92888888888889E-01
      0.00000000000000E+00   0.00000000000000E+00   0.00000000000000E+00   0.00000000000000E+00  -6.43199059113787E-20
     -1.69173195804952E-15  -1.69179627795543E-15  -5.91843514156978E-15   0.00000000000000E+00   0.00000000000000E+00
      0.00000000000000E+00   0.00000000000000E+00  -1.55534476702610E-19   1.15765491749677E-24  -1.55533319047692E-19
      1.82013813078036E-15   1.77866666666667E+00   1.77866666666667E+00   0.00000000000000E+00   0.00000000000000E+00
      1.69191205841834E-15   3.97528561377365E-20   1.69195181127448E-15   3.96764476272164E-15   0.00000000000000E+00
      0.00000000000000E+00   0.00000000000000E+00   0.00000000000000E+00   0.00000000000000E+00   0.00000000000000E+00
      0.00000000000000E+00   1.30652248067779E-16
      6.17888888888889E-01
      0.00000000000000E+00   0.00000000000000E+00   0.00000000000000E+00   0.00000000000000E+00  -6.44373811303769E-20
     -1.78106868011468E-15  -1.78113311749581E-15  -5.99165947653773E-15   0.00000000000000E+00   0.00000000000000E+00
      0.00000000000000E+00   0.00000000000000E+00  -1.55689951906169E-19  -1.28873973251817E-24  -1.55691240645901E-19
      1.82013813078033E-15   1.85366666666667E+00   1.85366666666667E+00   0.00000000000000E+00   0.00000000000000E+00
      1.78124952536321E-15   3.92833732408018E-20   1.78128880873645E-15   4.04675718274096E-15   0.00000000000000E+00
      0.00000000000000E+00   0.00000000000000E+00   0.00000000000000E+00   0.00000000000000E+00   0.00000000000000E+00
      0.00000000000000E+00   1.24764163016425E-16
      6.42888888888889E-01
      0.00000000000000E+00   0.00000000000000E+00   0.00000000000000E+00   0.00000000000000E+00  -6.45283675124627E-20
     -1.89692222500725E-15  -1.89698675337477E-15  -6.06447102352017E-15   0.00000000000000E+00   0.00000000000000E+00
      0.00000000000000E+00   0.00000000000000E+00  -1.55865643122773E-19   9.35056552798451E-25  -1.55864708066221E-19
      1.82013813078032E-15   1.92866666666667E+00   1.92866666666667E+00   0.00000000000000E+00   0.00000000000000E+00
      1.89710343597936E-15   3.91821034704978E-20   1.89714261808283E-15   4.12547031662819E-15   0.00000000000000E+00
      0.00000000000000E+00   0.00000000000000E+00   0.00000000000000E+00   0.00000000000000E+00   0.00000000000000E+00
      0.00000000000000E+00   1.18862576111638E-16
      6.67888888888889E-01
      0.00000000000000E+00   0.00000000000000E+00   0.00000000000000E+00   0.00000000000000E+00  -6.44316583222324E-20
     -2.00603952848276E-15  -2.00610396014108E-15  -6.13682859578247E-15   0.00000000000000E+00   0.00000000000000E+00
      0.00000000000000E+00   0.00000000000000E+00  -1.56176449202885E-19  -2.07637700353641E-24  -1.56178525579889E-19
      1.82013813078033E-15   2.00366666666667E+00   2.00366666666667E+00   0.00000000000000E+00   0.00000000000000E+00
      2.00622047029363E-15   3.96683730256143E-20   2.00626013866666E-15   4.20374250732774E-15   0.00000000000000E+00
      0.00000000000000E+00   0.00000000000000E+00   0.00000000000000E+00   0.00000000000000E+00   0.00000000000000E+00
      0.00000000000000E+00   1.12947957674389E-16
      6.92888888888889E-01
      0.00000000000000E+00   0.00000000000000E+00   0.00000000000000E+00   0.00000000000000E+00  -6.44607241821021E-20
     -2.07998433949579E-15  -2.08004880021997E-15  -6.20866452660299E-15   0.00000000000000E+00   0.00000000000000E+00
      0.00000000000000E+00   0.00000000000000E+00  -1.56276237051593E-19   6.70901521145660E-25  -1.56275566150072E-19
      1.82013813078041E-15   2.07866666666667E+00   2.07866666666667E+00   0.00000000000000E+00   0.00000000000000E+00
      2.08016531789404E-15   3.97578920762707E-20   2.08020507578612E-15   4.28150555012443E-15   0.00000000000000E+00
      0.00000000000000E+00   0.00000000000000E+00   0.00000000000000E+00   0.00000000000000E+00   0.00000000000000E+00
      0.00000000000000E+00   1.07020845698135E-16
      7.17888888888889E-01
      0.00000000000000E+00   0.00000000000000E+00   0.00000000000000E+00   0.00000000000000E+00  -6.42631939712636E-20
     -2.12074500041589E-15  -2.12080926360986E-15  -6.27988007416618E-15   0.00000000000000E+00   0.00000000000000E+00
      0.00000000000000E+00   0.00000000000000E+00  -1.56616107473450E-19  -1.04811743126710E-24  -1.56617155590881E-19
      1.82013813078061E-15   2.15366666666667E+00   2.15366666666667E+00   0.00000000000000E+00   0.00000000000000E+00
      2.12092614370482E-15   3.97370606318199E-20   2.12096588076545E-15   4.35866009887293E-15   0.00000000000000E+00
      0.00000000000000E+00   0.00000000000000E+00   0.00000000000000E+00   0.00000000000000E+00   0.00000000000000E+00
      0.00000000000000E+00   1.01081844512625E-16
      7.42888888888889E-01
      0.00000000000000E+00   0.00000000000000E+00   0.00000000000000E+00   0.00000000000000E+00  -6.43583177099956E-20
     -2.14377656215181E-15  -2.14384092046952E-15  -6.35033979797622E-15   0.00000000000000E+00   0.00000000000000E+00
      0.00000000000000E+00   0.00000000000000E+00  -1.56847532577351E-19   3.09002903459856E-24  -1.56844442548316E-19
      1.82013813078102E-15   2.22866666666667E+00   2.22866666666667E+00   0.00000000000000E+00   0.00000000000000E+00
      2.14395799629474E-15   3.97686173299725E-20   2.14399776491207E-15   4.43507004671105E-15   0.00000000000000E+00
      0.00000000000000E+00   0.00000000000000E+00   0.00000000000000E+00   0.00000000000000E+00   0.00000000000000E+00
      0.00000000000000E+00   9.51316204841470E-17
      7.67888888888889E-01
      0.00000000000000E+00   0.00000000000000E+00   0.00000000000000E+00   0.00000000000000E+00  -6.46958271184362E-20
     -2.16008205603528E-15  -2.16014675186240E-15  -6.41986719724017E-15   0.00000000000000E+00   0.00000000000000E+00
      0.00000000000000E+00   0.00000000000000E+00  -1.57173948774860E-19  -6.94539839400862E-25  -1.57174643314699E-19
      1.82013813078014E-15   2.30366666666667E+00   2.30366666666667E+00   0.00000000000000E+00   0.00000000000000E+00
      2.16026413696063E-15   3.97895450863487E-20   2.16030392650571E-15   4.51055817359983E-15   0.00000000000000E+00
      0.00000000000000E+00   0.00000000000000E+00   0.00000000000000E+00   0.00000000000000E+00   0.00000000000000E+00
      0.00000000000000E+00   8.91708928601996E-17
      7.92888888888889E-01
      0.00000000000000E+00   0.00000000000000E+00   0.00000000000000E+00   0.00000000000000E+00  -6.50487252863783E-20
     -2.17337450239461E-15  -2.17343955111990E-15  -6.48824937166351E-15   0.00000000000000E+00   0.00000000000000E+00
      0.00000000000000E+00   0.00000000000000E+00  -1.57122665252404E-19  -8.60107487597396E-25  -1.57123525359891E-19
      1.82013813078013E-15   2.37866666666667E+00   2.37866666666667E+00   0.00000000000000E+00   0.00000000000000E+00
      2.17355688057133E-15   3.97940739304380E-20   2.17359667464526E-15   4.58491081998516E-15   0.00000000000000E+00
      0.00000000000000E+00   0.00000000000000E+00   0.00000000000000E+00   0.00000000000000E+00   0.00000000000000E+00
      0.00000000000000E+00   8.32004208982095E-17
      8.17888888888889E-01
      0.00000000000000E+00   0.00000000000000E+00   0.00000000000000E+00   0.00000000000000E+00  -6.51051608851520E-20
     -2.18394896742119E-15  -2.18401407258207E-15  -6.55526641846861E-15   0.00000000000000E+00   0.00000000000000E+00
      0.00000000000000E+00   0.00000000000000E+00  -1.57369563495056E-19   8.40704978271093E-25  -1.57368722790078E-19
      1.82013813078012E-15   2.45366666666667E+00   2.45366666666667E+00   0.00000000000000E+00   0.00000000000000E+00
      2.18413164289353E-15   3.97984113328096E-20   2.18417144130487E-15   4.65790729844282E-15   0.00000000000000E+00
      0.00000000000000E+00   0.00000000000000E+00   0.00000000000000E+00   0.00000000000000E+00   0.00000000000000E+00
      0.00000000000000E+00   7.72209892456593E-17
      8.42888888888889E-01
      0.00000000000000E+00   0.00000000000000E+00   0.00000000000000E+00   0.00000000000000E+00  -6.50698252447324E-20
     -2.19185260183392E-15  -2.19191767165917E-15  -6.62076159273622E-15   0.00000000000000E+00   0.00000000000000E+00
      0.00000000000000E+00   0.00000000000000E+00  -1.57708187930642E-19  -1.68493359752658E-24  -1.57709872864239E-19
      1.82013813078012E-15   2.52866666666667E+00   2.52866666666667E+00   0.00000000000000E+00   0.00000000000000E+00
      2.19203557897806E-15   3.98025539703233E-20   2.19207538153203E-15   4.72939006934032E-15   0.00000000000000E+00
      0.00000000000000E+00   0.00000000000000E+00   0.00000000000000E+00   0.00000000000000E+00   0.00000000000000E+00
      0.00000000000000E+00   7.12333926157802E-17
      8.67888888888889E-01
      0.00000000000000E+00   0.00000000000000E+00   0.00000000000000E+00   0.00000000000000E+00  -6.51177751768279E-20