DF-ISE text

Info {
  version   = 1.0
  type      = xyplot
  datasets  = [
    "time"
    "substrate OuterVoltage" "substrate InnerVoltage" "substrate QuasiFermiPotential" "substrate DisplacementCurrent" "substrate eCurrent"
    "substrate hCurrent" "substrate TotalCurrent" "substrate Charge" "source OuterVoltage" "source InnerVoltage"
    "source QuasiFermiPotential" "source DisplacementCurrent" "source eCurrent" "source hCurrent" "source TotalCurrent"
    "source Charge" "drain OuterVoltage" "drain InnerVoltage" "drain QuasiFermiPotential" "drain DisplacementCurrent"
    "drain eCurrent" "drain hCurrent" "drain TotalCurrent" "drain Charge" "gate OuterVoltage"
    "gate InnerVoltage" "gate QuasiFermiPotential" "gate DisplacementCurrent" "gate eCurrent" "gate hCurrent"
    "gate TotalCurrent" "gate Charge" ]
  functions = [
    Time
    OuterVoltage InnerVoltage QuasiFermiPotential DisplacementCurrent eCurrent
    hCurrent TotalCurrent Charge OuterVoltage InnerVoltage
    QuasiFermiPotential DisplacementCurrent eCurrent hCurrent TotalCurrent
    Charge OuterVoltage InnerVoltage QuasiFermiPotential DisplacementCurrent
    eCurrent hCurrent TotalCurrent Charge OuterVoltage
    InnerVoltage QuasiFermiPotential DisplacementCurrent eCurrent hCurrent
    TotalCurrent Charge ]
}

Data {
      0.00000000000000E+00
      0.00000000000000E+00   0.00000000000000E+00   0.00000000000000E+00   0.00000000000000E+00   4.28953831766104E-21
     -1.59979447230009E-23   4.27354037293804E-21  -5.73660986131124E-15   0.00000000000000E+00   0.00000000000000E+00
      0.00000000000000E+00   0.00000000000000E+00  -2.29681697872636E-21   9.75233364602872E-24  -2.28706464508033E-21
      2.64701939027850E-15   0.00000000000000E+00   0.00000000000000E+00   0.00000000000000E+00   0.00000000000000E+00
     -1.99272133847599E-21   6.24561061826855E-24  -1.98647572785772E-21   2.64701939027850E-15   0.00000000000000E+00
      0.00000000000000E+00   0.00000000000000E+00   0.00000000000000E+00   0.00000000000000E+00   0.00000000000000E+00
      0.00000000000000E+00   4.42571080754245E-16
      1.00000000000000E-02
      0.00000000000000E+00   0.00000000000000E+00   0.00000000000000E+00   0.00000000000000E+00   2.28445380616409E-17
     -5.69843686425639E-17  -3.41398305809229E-17  -5.79531776449282E-15   0.00000000000000E+00   0.00000000000000E+00
      0.00000000000000E+00   0.00000000000000E+00  -1.53124482987334E-19   1.69683618728098E-23  -1.53107514625462E-19
      2.64701939027848E-15   3.00000000000000E-02   3.00000000000000E-02   0.00000000000000E+00   0.00000000000000E+00
      3.42721652179833E-17   2.07728775650839E-20   3.42929380955484E-17   2.70757006002199E-15   0.00000000000000E+00
      0.00000000000000E+00   0.00000000000000E+00   0.00000000000000E+00   0.00000000000000E+00   0.00000000000000E+00
      0.00000000000000E+00   4.40728314192363E-16
      2.33333333333333E-02
      0.00000000000000E+00   0.00000000000000E+00   0.00000000000000E+00   0.00000000000000E+00   5.71703895901294E-14
     -1.09410610028427E-16   5.70609789801010E-14  -5.87309805459123E-15   0.00000000000000E+00   0.00000000000000E+00
      0.00000000000000E+00   0.00000000000000E+00  -4.30605670578027E-20   4.14311661670062E-24  -4.30564239411860E-20
      2.64701939027844E-15   7.00000000000000E-02   7.00000000000000E-02   0.00000000000000E+00   0.00000000000000E+00
     -5.70588349732132E-14  -2.10095046389235E-18  -5.70609359236771E-14   2.78778615763643E-15   0.00000000000000E+00
      0.00000000000000E+00   0.00000000000000E+00   0.00000000000000E+00   0.00000000000000E+00   0.00000000000000E+00
      0.00000000000000E+00   4.38292506676354E-16
      4.28888888888889E-02
      0.00000000000000E+00   0.00000000000000E+00   0.00000000000000E+00   0.00000000000000E+00  -1.23022796424801E-19
     -1.86041331752743E-16  -1.86164354549167E-16  -5.98625918799590E-15   0.00000000000000E+00   0.00000000000000E+00
      0.00000000000000E+00   0.00000000000000E+00  -1.23921515069052E-19  -1.90434256912599E-23  -1.23940558494743E-19
      2.64701939027842E-15   1.28666666666667E-01   1.28666666666667E-01   0.00000000000000E+00   0.00000000000000E+00
      1.86221570603711E-16   6.67245039512253E-20   1.86288295107662E-16   2.90446822531271E-15   0.00000000000000E+00
      0.00000000000000E+00   0.00000000000000E+00   0.00000000000000E+00   0.00000000000000E+00   0.00000000000000E+00
      0.00000000000000E+00   4.34771572404773E-16
      6.78888888888889E-02
      0.00000000000000E+00   0.00000000000000E+00   0.00000000000000E+00   0.00000000000000E+00  -3.09543989826340E-19
     -3.01203711997496E-16  -3.01513255987322E-16  -6.12940526986586E-15   0.00000000000000E+00   0.00000000000000E+00
      0.00000000000000E+00   0.00000000000000E+00  -1.03484455581194E-19   4.88483197771444E-24  -1.03479570749216E-19
      2.64701939027838E-15   2.03666666666667E-01   2.03666666666667E-01   0.00000000000000E+00   0.00000000000000E+00
      3.01558592999569E-16   5.81425585024242E-20   3.01616735558071E-16   3.05200844389745E-15   0.00000000000000E+00
      0.00000000000000E+00   0.00000000000000E+00   0.00000000000000E+00   0.00000000000000E+00   0.00000000000000E+00
      0.00000000000000E+00   4.30377435690049E-16
      9.28888888888889E-02
      0.00000000000000E+00   0.00000000000000E+00   0.00000000000000E+00   0.00000000000000E+00   5.21809926610741E-18
     -4.47785243934042E-16  -4.42567144667935E-16  -6.27076758232897E-15   0.00000000000000E+00   0.00000000000000E+00
      0.00000000000000E+00   0.00000000000000E+00  -7.14808730143164E-20  -2.87756218054503E-23  -7.15096486361218E-20
      2.64701939027832E-15   2.78666666666667E-01   2.78666666666667E-01   0.00000000000000E+00   0.00000000000000E+00
      4.42588578309808E-16   5.00760067626724E-20   4.42638654316571E-16   3.19763484484384E-15   0.00000000000000E+00
      0.00000000000000E+00   0.00000000000000E+00   0.00000000000000E+00   0.00000000000000E+00   0.00000000000000E+00
      0.00000000000000E+00   4.26113347206824E-16
      1.17888888888889E-01
      0.00000000000000E+00   0.00000000000000E+00   0.00000000000000E+00   0.00000000000000E+00   2.08522841807206E-20
     -6.20258902807722E-16  -6.20238050523541E-16  -6.41017710616526E-15   0.00000000000000E+00   0.00000000000000E+00
      0.00000000000000E+00   0.00000000000000E+00  -2.34494277992623E-19   1.01159839632802E-23  -2.34484162008659E-19
      2.64701939027825E-15   3.53666666666667E-01   3.53666666666667E-01   0.00000000000000E+00   0.00000000000000E+00
      6.20409932611641E-16   6.26020739093912E-20   6.20472534685550E-16   3.34120142064700E-15   0.00000000000000E+00
      0.00000000000000E+00   0.00000000000000E+00   0.00000000000000E+00   0.00000000000000E+00   0.00000000000000E+00
      0.00000000000000E+00   4.21956295240020E-16
      1.42888888888889E-01
      0.00000000000000E+00   0.00000000000000E+00   0.00000000000000E+00   0.00000000000000E+00  -2.12770294347508E-19
     -8.11183977282057E-16  -8.11396747576404E-16  -6.54739101816916E-15   0.00000000000000E+00   0.00000000000000E+00
      0.00000000000000E+00   0.00000000000000E+00   2.08270514841068E-20  -1.45687565043249E-24   2.08255946084563E-20
      2.64701939027818E-15   4.28666666666667E-01   4.28666666666667E-01   0.00000000000000E+00   0.00000000000000E+00
      8.11316267328690E-16   5.96546531048509E-20   8.11375921981795E-16   3.48251233846650E-15   0.00000000000000E+00
      0.00000000000000E+00   0.00000000000000E+00   0.00000000000000E+00   0.00000000000000E+00   0.00000000000000E+00
      0.00000000000000E+00   4.17859289424500E-16
      1.67888888888889E-01
      0.00000000000000E+00   0.00000000000000E+00   0.00000000000000E+00   0.00000000000000E+00  -6.85246951593988E-20
     -1.02873708743521E-15  -1.02880561213037E-15  -6.68203312162138E-15   0.00000000000000E+00   0.00000000000000E+00
      0.00000000000000E+00   0.00000000000000E+00  -1.39717712365738E-19   1.37034505524335E-23  -1.39704008915185E-19
      2.64701939027809E-15   5.03666666666667E-01   5.03666666666667E-01   0.00000000000000E+00   0.00000000000000E+00
      1.02889790807222E-15   4.74080670721304E-20   1.02894531613929E-15   3.62123069890176E-15   0.00000000000000E+00
      0.00000000000000E+00   0.00000000000000E+00   0.00000000000000E+00   0.00000000000000E+00   0.00000000000000E+00
      0.00000000000000E+00   4.13783032441523E-16
      1.92888888888889E-01
      0.00000000000000E+00   0.00000000000000E+00   0.00000000000000E+00   0.00000000000000E+00  -1.31020548377226E-19
     -1.28055957479535E-15  -1.28069059534373E-15  -6.81356932907736E-15   0.00000000000000E+00   0.00000000000000E+00
      0.00000000000000E+00   0.00000000000000E+00  -6.89314804909002E-20  -4.02329039641290E-24  -6.89355037812967E-20
      2.64701939027799E-15   5.78666666666667E-01   5.78666666666667E-01   0.00000000000000E+00   0.00000000000000E+00
      1.28068736654808E-15   7.21642994264111E-20   1.28075953084751E-15   3.75684339352169E-15   0.00000000000000E+00
      0.00000000000000E+00   0.00000000000000E+00   0.00000000000000E+00   0.00000000000000E+00   0.00000000000000E+00
      0.00000000000000E+00   4.09706545277679E-16
      2.17888888888889E-01
      0.00000000000000E+00   0.00000000000000E+00   0.00000000000000E+00   0.00000000000000E+00  -1.82637486962267E-19
     -1.54380371753242E-15  -1.54398635501938E-15  -6.94136952802577E-15   0.00000000000000E+00   0.00000000000000E+00
      0.00000000000000E+00   0.00000000000000E+00  -1.86902096010740E-20  -5.55212885811063E-24  -1.86957617299321E-20
      2.64701939027790E-15   6.53666666666667E-01   6.53666666666667E-01   0.00000000000000E+00   0.00000000000000E+00
      1.54394688040004E-15   5.81703810712648E-20   1.54400505078111E-15   3.88872927276749E-15   0.00000000000000E+00
      0.00000000000000E+00   0.00000000000000E+00   0.00000000000000E+00   0.00000000000000E+00   0.00000000000000E+00
      0.00000000000000E+00   4.05620864980395E-16
      2.42888888888889E-01
      0.00000000000000E+00   0.00000000000000E+00   0.00000000000000E+00   0.00000000000000E+00  -5.78750338246159E-20
     -1.75641694394690E-15  -1.75647481898072E-15  -7.06487812881243E-15   0.00000000000000E+00   0.00000000000000E+00
      0.00000000000000E+00   0.00000000000000E+00  -1.51174528781354E-19  -1.67254585084740E-23  -1.51191254239863E-19
      2.64701939027781E-15   7.28666666666667E-01   7.28666666666666E-01   0.00000000000000E+00   0.00000000000000E+00
      1.75654142892829E-15   8.45813066700123E-20   1.75662601023496E-15   4.01633625656783E-15   0.00000000000000E+00
      0.00000000000000E+00   0.00000000000000E+00   0.00000000000000E+00   0.00000000000000E+00   0.00000000000000E+00
      0.00000000000000E+00   4.01522481966793E-16
      2.67888888888889E-01
      0.00000000000000E+00   0.00000000000000E+00   0.00000000000000E+00   0.00000000000000E+00  -8.19983238815389E-20
     -1.88912557567525E-15  -1.88920757399914E-15  -7.18386785013771E-15   0.00000000000000E+00   0.00000000000000E+00
      0.00000000000000E+00   0.00000000000000E+00  -1.24479833519003E-19  -1.43393097961853E-23  -1.24494172828799E-19
      2.64701939027776E-15   8.03666666666667E-01   8.03666666666667E-01   0.00000000000000E+00   0.00000000000000E+00
      1.88927102446976E-15   6.10437022042646E-20   1.88933206817197E-15   4.13943841011913E-15   0.00000000000000E+00
      0.00000000000000E+00   0.00000000000000E+00   0.00000000000000E+00   0.00000000000000E+00   0.00000000000000E+00
      0.00000000000000E+00   3.97410049740832E-16
      2.92888888888889E-01
      0.00000000000000E+00   0.00000000000000E+00   0.00000000000000E+00   0.00000000000000E+00  -5.82236412133927E-20
     -1.97253406202862E-15  -1.97259228566984E-15  -7.29868377328518E-15   0.00000000000000E+00   0.00000000000000E+00
      0.00000000000000E+00   0.00000000000000E+00  -1.51541764999290E-19   8.18939059174034E-24  -1.51533575608698E-19
      2.64701939027772E-15   8.78666666666667E-01   8.78666666666667E-01   0.00000000000000E+00   0.00000000000000E+00
      1.97268709586012E-15   5.67233853223778E-20   1.97274381924545E-15   4.25838132571808E-15   0.00000000000000E+00
      0.00000000000000E+00   0.00000000000000E+00   0.00000000000000E+00   0.00000000000000E+00   0.00000000000000E+00
      0.00000000000000E+00   3.93283057289392E-16
      3.17888888888889E-01
      0.00000000000000E+00   0.00000000000000E+00   0.00000000000000E+00   0.00000000000000E+00  -4.57246232513356E-22
     -2.03416444528768E-15  -2.03416490253391E-15  -7.41024201292079E-15   0.00000000000000E+00   0.00000000000000E+00
      0.00000000000000E+00   0.00000000000000E+00  -2.09513994836081E-19   8.70981492444880E-24  -2.09505285021156E-19
      2.64701939027770E-15   9.53666666666667E-01   9.53666666666667E-01   0.00000000000000E+00   0.00000000000000E+00
      2.03434126080109E-15   3.31470178496701E-20   2.03437440781893E-15   4.37408129201597E-15   0.00000000000000E+00
      0.00000000000000E+00   0.00000000000000E+00   0.00000000000000E+00   0.00000000000000E+00   0.00000000000000E+00
      0.00000000000000E+00   3.89141330627135E-16
      3.42888888888889E-01
      0.00000000000000E+00   0.00000000000000E+00   0.00000000000000E+00   0.00000000000000E+00  -8.05230658846156E-20
     -2.08126112373938E-15  -2.08134164680526E-15  -7.51964203565693E-15   0.00000000000000E+00   0.00000000000000E+00
      0.00000000000000E+00   0.00000000000000E+00  -1.29557540243072E-19   1.39569856266953E-23  -1.29543583257446E-19
      2.64701939027768E-15   1.02866666666667E+00   1.02866666666667E+00   0.00000000000000E+00   0.00000000000000E+00
      2.08137781682901E-15   9.33735595056338E-20   2.08147119038852E-15   4.48763779575536E-15   0.00000000000000E+00
      0.00000000000000E+00   0.00000000000000E+00   0.00000000000000E+00   0.00000000000000E+00   0.00000000000000E+00
      0.00000000000000E+00   3.84984849623903E-16
      3.67888888888889E-01
      0.00000000000000E+00   0.00000000000000E+00   0.00000000000000E+00   0.00000000000000E+00  -1.27282621096049E-19
     -2.11619309227203E-15  -2.11632037489312E-15  -7.62774144622574E-15   0.00000000000000E+00   0.00000000000000E+00
      0.00000000000000E+00   0.00000000000000E+00  -8.30741088006464E-20  -1.88096732290040E-23  -8.30929184738754E-20
      2.64701939027766E-15   1.10366666666667E+00   1.10366666666667E+00   0.00000000000000E+00   0.00000000000000E+00
      2.11710105264962E-15  -6.97584838027331E-19   2.11640346781160E-15   4.59990836883648E-15   0.00000000000000E+00
      0.00000000000000E+00   0.00000000000000E+00   0.00000000000000E+00   0.00000000000000E+00   0.00000000000000E+00
      0.00000000000000E+00   3.80813687111594E-16
      3.92888888888889E-01
      0.00000000000000E+00   0.00000000000000E+00   0.00000000000000E+00   0.00000000000000E+00  -1.72578864603087E-19
     -2.14435064661479E-15  -2.14452322547939E-15  -7.73503983246322E-15   0.00000000000000E+00   0.00000000000000E+00
      0.00000000000000E+00   0.00000000000000E+00  -3.80038911441528E-20  -6.14890687814912E-24  -3.80100400510309E-20
      2.64701939027765E-15   1.17866666666667E+00   1.17866666666667E+00   0.00000000000000E+00   0.00000000000000E+00
      2.14448596650488E-15   7.52690145584323E-20   2.14456123551944E-15   4.71139243705028E-15   0.00000000000000E+00
      0.00000000000000E+00   0.00000000000000E+00   0.00000000000000E+00   0.00000000000000E+00   0.00000000000000E+00
      0.00000000000000E+00   3.76628005135310E-16
      4.17888888888889E-01
      0.00000000000000E+00   0.00000000000000E+00   0.00000000000000E+00   0.00000000000000E+00  -2.19550441710923E-19
     -2.16534650348056E-15  -2.16556605392227E-15  -7.84177550568980E-15   0.00000000000000E+00   0.00000000000000E+00
      0.00000000000000E+00   0.00000000000000E+00   8.77723248135610E-21  -1.18465018040598E-24   8.77604783117569E-21
      2.64701939027764E-15   1.25366666666667E+00   1.25366666666667E+00   0.00000000000000E+00   0.00000000000000E+00
      2.16549671772040E-15   6.05601540373267E-20   2.16555727787444E-15   4.82232803586080E-15   0.00000000000000E+00
      0.00000000000000E+00   0.00000000000000E+00   0.00000000000000E+00   0.00000000000000E+00   0.00000000000000E+00
      0.00000000000000E+00   3.72428079551375E-16
      4.42888888888889E-01
      0.00000000000000E+00   0.00000000000000E+00   0.00000000000000E+00   0.00000000000000E+00   4.49844485533521E-20
     -2.18095813680980E-15  -2.18091315236125E-15  -7.94804319658947E-15   0.00000000000000E+00   0.00000000000000E+00
      0.00000000000000E+00   0.00000000000000E+00  -2.55940898735865E-19   7.42288042185413E-24  -2.55933475855443E-19
      2.64701939027763E-15   1.32866666666667E+00   1.32866666666667E+00   0.00000000000000E+00   0.00000000000000E+00
      2.18110721046922E-15   6.18753678835684E-20   2.18116908583711E-15   4.93280948327555E-15   0.00000000000000E+00
      0.00000000000000E+00   0.00000000000000E+00   0.00000000000000E+00   0.00000000000000E+00   0.00000000000000E+00
      0.00000000000000E+00   3.68214323036289E-16
      4.67888888888889E-01
      0.00000000000000E+00   0.00000000000000E+00   0.00000000000000E+00   0.00000000000000E+00  -1.32427505348539E-19
     -2.19371843343771E-15  -2.19385086094306E-15  -8.05386907849624E-15   0.00000000000000E+00   0.00000000000000E+00
      0.00000000000000E+00   0.00000000000000E+00  -7.87055184333604E-20   2.38804773064308E-23  -7.86816379560540E-20
      2.64701939027763E-15   1.40366666666667E+00   1.40366666666667E+00   0.00000000000000E+00   0.00000000000000E+00
      2.19391924588110E-15   1.02966999067756E-20   2.19392954258101E-15   5.04286240823602E-15   0.00000000000000E+00
      0.00000000000000E+00   0.00000000000000E+00   0.00000000000000E+00   0.00000000000000E+00   0.00000000000000E+00
      0.00000000000000E+00   3.63987279982598E-16
      4.92888888888889E-01
      0.00000000000000E+00   0.00000000000000E+00   0.00000000000000E+00   0.00000000000000E+00  -2.03332958679679E-21
     -2.20870463607359E-15  -2.20870666940318E-15  -8.15924950612946E-15   0.00000000000000E+00   0.00000000000000E+00
      0.00000000000000E+00   0.00000000000000E+00  -2.09272808031153E-19   2.86859231471553E-23  -2.09244122108006E-19
      2.64701939027762E-15   1.47866666666667E+00   1.47866666666667E+00   0.00000000000000E+00   0.00000000000000E+00
      2.20884571771312E-15   7.01958121707304E-20   2.20891591352529E-15   5.15248252885019E-15   0.00000000000000E+00
      0.00000000000000E+00   0.00000000000000E+00   0.00000000000000E+00   0.00000000000000E+00   0.00000000000000E+00
      0.00000000000000E+00   3.59747587001661E-16
      5.17888888888889E-01
      0.00000000000000E+00   0.00000000000000E+00   0.00000000000000E+00   0.00000000000000E+00  -3.74863888411309E-20
     -2.23207736925930E-15  -2.23211485564814E-15  -8.26416920380113E-15   0.00000000000000E+00   0.00000000000000E+00
      0.00000000000000E+00   0.00000000000000E+00  -1.73988591082012E-19   5.32067007893157E-24  -1.73983270411933E-19
      2.64701939027761E-15   1.55366666666667E+00   1.55366666666667E+00   0.00000000000000E+00   0.00000000000000E+00
      2.23222582694054E-15   6.30119780161758E-20   2.23228883891855E-15   5.26165390539302E-15   0.00000000000000E+00
      0.00000000000000E+00   0.00000000000000E+00   0.00000000000000E+00   0.00000000000000E+00   0.00000000000000E+00
      0.00000000000000E+00   3.55495908130504E-16
      5.42888888888889E-01
      0.00000000000000E+00   0.00000000000000E+00   0.00000000000000E+00   0.00000000000000E+00  -1.06212270169769E-19
     -2.27092615196788E-15  -2.27103236423805E-15  -8.36860886450939E-15   0.00000000000000E+00   0.00000000000000E+00
      0.00000000000000E+00   0.00000000000000E+00  -1.05431439431352E-19  -1.35637280326858E-23  -1.05445003159385E-19
      2.64701939027759E-15   1.62866666666667E+00   1.62866666666667E+00   0.00000000000000E+00   0.00000000000000E+00
      2.27108098855291E-15   5.68206882944185E-20   2.27113780924120E-15   5.37035661658826E-15   0.00000000000000E+00
      0.00000000000000E+00   0.00000000000000E+00   0.00000000000000E+00   0.00000000000000E+00   0.00000000000000E+00
      0.00000000000000E+00   3.51232857643542E-16
      5.67888888888889E-01
      0.00000000000000E+00   0.00000000000000E+00   0.00000000000000E+00   0.00000000000000E+00  -4.87258325442469E-20
     -2.33216979612705E-15  -2.33221852195959E-15  -8.47254717615253E-15   0.00000000000000E+00   0.00000000000000E+00
      0.00000000000000E+00   0.00000000000000E+00  -1.63085847029403E-19   6.81148380505408E-26  -1.63085778914565E-19
      2.64701939027757E-15   1.70366666666667E+00   1.70366666666667E+00   0.00000000000000E+00   0.00000000000000E+00
      2.33230816125115E-15   7.34464873608400E-20   2.33238160773851E-15   5.47856885167238E-15   0.00000000000000E+00
      0.00000000000000E+00   0.00000000000000E+00   0.00000000000000E+00   0.00000000000000E+00   0.00000000000000E+00
      0.00000000000000E+00   3.46958934202576E-16
      5.92888888888889E-01
      0.00000000000000E+00   0.00000000000000E+00   0.00000000000000E+00   0.00000000000000E+00  -1.99719145814603E-19
     -2.42325621689372E-15  -2.42345593603954E-15  -8.57595937223500E-15   0.00000000000000E+00   0.00000000000000E+00
      0.00000000000000E+00   0.00000000000000E+00  -1.22535461050842E-20   1.42802688505833E-23  -1.22392658362336E-20
      2.64701939027753E-15   1.77866666666667E+00   1.77866666666667E+00   0.00000000000000E+00   0.00000000000000E+00
      2.42340516375214E-15   6.30115532324055E-20   2.42346817530537E-15   5.58626548477662E-15   0.00000000000000E+00
      0.00000000000000E+00   0.00000000000000E+00   0.00000000000000E+00   0.00000000000000E+00   0.00000000000000E+00
      0.00000000000000E+00   3.42674497180846E-16
      6.17888888888889E-01
      0.00000000000000E+00   0.00000000000000E+00   0.00000000000000E+00   0.00000000000000E+00  -3.84539010701681E-20
     -2.54999338578264E-15  -2.55003183968371E-15  -8.67881253209601E-15   0.00000000000000E+00   0.00000000000000E+00
      0.00000000000000E+00   0.00000000000000E+00  -1.73564677861191E-19   1.84512166696912E-23  -1.73546226644521E-19
      2.64701939027740E-15   1.85366666666667E+00   1.85366666666667E+00   0.00000000000000E+00   0.00000000000000E+00
      2.55014868177928E-15   5.67041310751792E-20   2.55020538591035E-15   5.69341334836717E-15   0.00000000000000E+00
      0.00000000000000E+00   0.00000000000000E+00   0.00000000000000E+00   0.00000000000000E+00   0.00000000000000E+00
      0.00000000000000E+00   3.38379793451456E-16
      6.42888888888889E-01
      0.00000000000000E+00   0.00000000000000E+00   0.00000000000000E+00   0.00000000000000E+00  -1.16808758028854E-19
     -2.70559778839037E-15  -2.70571459714840E-15  -8.78105767299602E-15   0.00000000000000E+00   0.00000000000000E+00
      0.00000000000000E+00   0.00000000000000E+00  -9.50736929276274E-20  -2.22720346908928E-24  -9.50759201310965E-20
      2.64701939027745E-15   1.92866666666667E+00   1.92866666666667E+00   0.00000000000000E+00   0.00000000000000E+00
      2.70576038579501E-15   4.92872735249706E-20   2.70580967306853E-15   5.79996327159963E-15   0.00000000000000E+00
      0.00000000000000E+00   0.00000000000000E+00   0.00000000000000E+00   0.00000000000000E+00   0.00000000000000E+00
      0.00000000000000E+00   3.34075011118933E-16
      6.67888888888889E-01
      0.00000000000000E+00   0.00000000000000E+00   0.00000000000000E+00   0.00000000000000E+00   4.13688065704641E-19
     -2.86058814169457E-15  -2.86017445362886E-15  -8.88261986441506E-15   0.00000000000000E+00   0.00000000000000E+00
      0.00000000000000E+00   0.00000000000000E+00  -2.13919818195693E-19   2.81104136717854E-23  -2.13891707782021E-19
      2.64701939027757E-15   2.00366666666667E+00   2.00366666666667E+00   0.00000000000000E+00   0.00000000000000E+00
      2.86036430023473E-15   2.40451019173752E-20   2.86038834533665E-15   5.90584014306095E-15   0.00000000000000E+00
      0.00000000000000E+00   0.00000000000000E+00   0.00000000000000E+00   0.00000000000000E+00   0.00000000000000E+00
      0.00000000000000E+00   3.29760331076530E-16
      6.92888888888889E-01
      0.00000000000000E+00   0.00000000000000E+00   0.00000000000000E+00   0.00000000000000E+00  -1.39357319505390E-19
     -2.97839191089222E-15  -2.97853126821173E-15  -8.98338793708377E-15   0.00000000000000E+00   0.00000000000000E+00
      0.00000000000000E+00   0.00000000000000E+00  -7.08975152409304E-20  -7.77253090314262E-26  -7.08975929662394E-20
      2.64701939027762E-15   2.07866666666667E+00   2.07866666666667E+00   0.00000000000000E+00   0.00000000000000E+00
      2.97854891321773E-15   5.32525869643989E-20   2.97860216580469E-15   6.01093258505798E-15   0.00000000000000E+00
      0.00000000000000E+00   0.00000000000000E+00   0.00000000000000E+00   0.00000000000000E+00   0.00000000000000E+00
      0.00000000000000E+00   3.25435961748167E-16
      7.17888888888889E-01
      0.00000000000000E+00   0.00000000000000E+00   0.00000000000000E+00   0.00000000000000E+00  -2.41113360034991E-20
     -3.04900333377402E-15  -3.04902744511003E-15  -9.08320451950297E-15   0.00000000000000E+00   0.00000000000000E+00
      0.00000000000000E+00   0.00000000000000E+00  -1.87841035317583E-19  -1.42202492634369E-23  -1.87855255566846E-19
      2.64701939027788E-15   2.15366666666667E+00   2.15366666666667E+00   0.00000000000000E+00   0.00000000000000E+00
      3.04915841669676E-15   5.68836688341474E-20   3.04921530036559E-15   6.11508297567497E-15   0.00000000000000E+00
      0.00000000000000E+00   0.00000000000000E+00   0.00000000000000E+00   0.00000000000000E+00   0.00000000000000E+00
      0.00000000000000E+00   3.21102153550116E-16
      7.42888888888889E-01
      0.00000000000000E+00   0.00000000000000E+00   0.00000000000000E+00   0.00000000000000E+00  -1.21407842263787E-20
     -3.08761487274187E-15  -3.08762701352609E-15  -9.18185757199083E-15   0.00000000000000E+00   0.00000000000000E+00
      0.00000000000000E+00   0.00000000000000E+00  -2.00928235786187E-19   1.55606147104621E-23  -2.00912675171477E-19
      2.64701939027728E-15   2.22866666666667E+00   2.22866666666667E+00   0.00000000000000E+00   0.00000000000000E+00
      3.08777156200258E-15   5.63641986784002E-20   3.08782792620126E-15   6.21807898754256E-15   0.00000000000000E+00
      0.00000000000000E+00   0.00000000000000E+00   0.00000000000000E+00   0.00000000000000E+00   0.00000000000000E+00
      0.00000000000000E+00   3.16759194170990E-16
      7.67888888888889E-01
      0.00000000000000E+00   0.00000000000000E+00   0.00000000000000E+00   0.00000000000000E+00  -2.40320269726457E-20
     -3.11019392871380E-15  -3.11021796074077E-15  -9.27907844653013E-15   0.00000000000000E+00   0.00000000000000E+00
      0.00000000000000E+00   0.00000000000000E+00  -1.89223807147493E-19   1.32098996611852E-23  -1.89210597247832E-19
      2.64701939027727E-15   2.30366666666667E+00   2.30366666666667E+00   0.00000000000000E+00   0.00000000000000E+00
      3.11035027675819E-15   5.68945798306415E-20   3.11040717133802E-15   6.31965166665414E-15   0.00000000000000E+00
      0.00000000000000E+00   0.00000000000000E+00   0.00000000000000E+00   0.00000000000000E+00   0.00000000000000E+00
      0.00000000000000E+00   3.12407389598728E-16
      7.92888888888889E-01
      0.00000000000000E+00   0.00000000000000E+00   0.00000000000000E+00   0.00000000000000E+00  -8.08229744639642E-20
     -3.12443830696609E-15  -3.12451912994055E-15  -9.37455846000096E-15   0.00000000000000E+00   0.00000000000000E+00
      0.00000000000000E+00   0.00000000000000E+00  -1.32619538838266E-19   4.83392717943737E-24  -1.32614704911086E-19
      2.64701939027727E-15   2.37866666666667E+00   2.37866666666667E+00   0.00000000000000E+00   0.00000000000000E+00
      3.12459484305559E-15   5.69015898739162E-20   3.12465174464546E-15   6.41949203084200E-15   0.00000000000000E+00
      0.00000000000000E+00   0.00000000000000E+00   0.00000000000000E+00   0.00000000000000E+00   0.00000000000000E+00
      0.00000000000000E+00   3.08047038881710E-16
      8.17888888888889E-01
      0.00000000000000E+00   0.00000000000000E+00   0.00000000000000E+00   0.00000000000000E+00  -5.69630094098013E-20
     -3.13340612952828E-15  -3.13346309253769E-15  -9.46800034812410E-15   0.00000000000000E+00   0.00000000000000E+00
      0.00000000000000E+00   0.00000000000000E+00  -1.56665173075458E-19   1.00975896955625E-23  -1.56655075485763E-19
      2.64701939027726E-15   2.45366666666667E+00   2.45366666666667E+00   0.00000000000000E+00   0.00000000000000E+00
      3.13356283927613E-15   5.69083370502043E-20   3.13361974761318E-15   6.51730254735058E-15   0.00000000000000E+00
      0.00000000000000E+00   0.00000000000000E+00   0.00000000000000E+00   0.00000000000000E+00   0.00000000000000E+00
      0.00000000000000E+00   3.03678410496255E-16
      8.42888888888889E-01
      0.00000000000000E+00   0.00000000000000E+00   0.00000000000000E+00   0.00000000000000E+00  -9.19783459567068E-20
     -3.13938827142453E-15  -3.13948024977048E-15  -9.55921034643056E-15   0.00000000000000E+00   0.00000000000000E+00
      0.00000000000000E+00   0.00000000000000E+00  -1.21833346585735E-19  -2.59704297649856E-24  -1.21835943628712E-19
      2.64701939027726E-15   2.52866666666667E+00   2.52866666666667E+00   0.00000000000000E+00   0.00000000000000E+00
      3.13954517090681E-15   5.69148073016522E-20   3.13960208571411E-15   6.61288923167187E-15   0.00000000000000E+00
      0.00000000000000E+00   0.00000000000000E+00   0.00000000000000E+00   0.00000000000000E+00   0.00000000000000E+00
      0.00000000000000E+00   2.99301724481437E-16
      8.67888888888889E-01
      0.00000000000000E+00   0.00000000000000E+00   0.00000000000000E+00   0.00000000000000E+00  -1.05881819066410E-19