DF-ISE text

Info {
  version   = 1.0
  type      = xyplot
  datasets  = [
    "time"
    "substrate OuterVoltage" "substrate InnerVoltage" "substrate QuasiFermiPotential" "substrate DisplacementCurrent" "substrate eCurrent"
    "substrate hCurrent" "substrate TotalCurrent" "substrate Charge" "source OuterVoltage" "source InnerVoltage"
    "source QuasiFermiPotential" "source DisplacementCurrent" "source eCurrent" "source hCurrent" "source TotalCurrent"
    "source Charge" "drain OuterVoltage" "drain InnerVoltage" "drain QuasiFermiPotential" "drain DisplacementCurrent"
    "drain eCurrent" "drain hCurrent" "drain TotalCurrent" "drain Charge" "gate OuterVoltage"
    "gate InnerVoltage" "gate QuasiFermiPotential" "gate DisplacementCurrent" "gate eCurrent" "gate hCurrent"
    "gate TotalCurrent" "gate Charge" ]
  functions = [
    Time
    OuterVoltage InnerVoltage QuasiFermiPotential DisplacementCurrent eCurrent
    hCurrent TotalCurrent Charge OuterVoltage InnerVoltage
    QuasiFermiPotential DisplacementCurrent eCurrent hCurrent TotalCurrent
    Charge OuterVoltage InnerVoltage QuasiFermiPotential DisplacementCurrent
    eCurrent hCurrent TotalCurrent Charge OuterVoltage
    InnerVoltage QuasiFermiPotential DisplacementCurrent eCurrent hCurrent
    TotalCurrent Charge ]
}

Data {
      0.00000000000000E+00
      0.00000000000000E+00   0.00000000000000E+00   0.00000000000000E+00   0.00000000000000E+00  -4.09927784555850E-21
      3.26484940410525E-25  -4.09895136061809E-21  -2.85509697358904E-15   0.00000000000000E+00   0.00000000000000E+00
      0.00000000000000E+00   0.00000000000000E+00   2.36697702066137E-21  -1.99571695126667E-25   2.36677744896624E-21
      1.35588227677361E-15   0.00000000000000E+00   0.00000000000000E+00   0.00000000000000E+00   0.00000000000000E+00
      1.73230082483573E-21  -1.26913183871982E-25   1.73217391165186E-21   1.35588227677361E-15   0.00000000000000E+00
      0.00000000000000E+00   0.00000000000000E+00   0.00000000000000E+00   0.00000000000000E+00   0.00000000000000E+00
      0.00000000000000E+00   1.43332420041813E-16
      1.00000000000000E-02
      0.00000000000000E+00   0.00000000000000E+00   0.00000000000000E+00   0.00000000000000E+00   2.73894936548231E-18
     -2.52322722265102E-17  -2.24933228610279E-17  -2.88637532785785E-15   0.00000000000000E+00   0.00000000000000E+00
      0.00000000000000E+00   0.00000000000000E+00  -1.40010109375197E-19  -2.93541532165663E-26  -1.40010138729350E-19
      1.35588227677359E-15   3.00000000000000E-02   3.00000000000000E-02   0.00000000000000E+00   0.00000000000000E+00
      2.26152241047791E-17   1.81088949781870E-20   2.26333329997573E-17   1.38999302235243E-15   0.00000000000000E+00
      0.00000000000000E+00   0.00000000000000E+00   0.00000000000000E+00   0.00000000000000E+00   0.00000000000000E+00
      0.00000000000000E+00   1.40500028731819E-16
      2.33333333333333E-02
      0.00000000000000E+00   0.00000000000000E+00   0.00000000000000E+00   0.00000000000000E+00   1.29350534275457E-16
     -5.40723051731459E-17   7.52782291023113E-17  -2.92776712497343E-15   0.00000000000000E+00   0.00000000000000E+00
      0.00000000000000E+00   0.00000000000000E+00  -1.87985609514671E-19  -5.15751044636661E-26  -1.87985661089776E-19
      1.35588227677338E-15   7.00000000000000E-02   7.00000000000000E-02   0.00000000000000E+00   0.00000000000000E+00
     -7.50967810274275E-17   6.53758620612057E-21  -7.50902434412214E-17   1.43515974930660E-15   0.00000000000000E+00
      0.00000000000000E+00   0.00000000000000E+00   0.00000000000000E+00   0.00000000000000E+00   0.00000000000000E+00
      0.00000000000000E+00   1.36725098893458E-16
      4.28888888888889E-02
      0.00000000000000E+00   0.00000000000000E+00   0.00000000000000E+00   0.00000000000000E+00  -4.08279212022493E-20
     -9.56861436613076E-17  -9.57269715825099E-17  -2.98785142005867E-15   0.00000000000000E+00   0.00000000000000E+00
      0.00000000000000E+00   0.00000000000000E+00  -1.96740783162819E-19   1.06895754806525E-25  -1.96740676267064E-19
      1.35588227677354E-15   1.28666666666667E-01   1.28666666666667E-01   0.00000000000000E+00   0.00000000000000E+00
      9.58921991120638E-17   3.15131467131271E-20   9.59237122587769E-17   1.50077648205333E-15   0.00000000000000E+00
      0.00000000000000E+00   0.00000000000000E+00   0.00000000000000E+00   0.00000000000000E+00   0.00000000000000E+00
      0.00000000000000E+00   1.31192661231797E-16
      6.78888888888889E-02
      0.00000000000000E+00   0.00000000000000E+00   0.00000000000000E+00   0.00000000000000E+00  -4.08507539338483E-20
     -1.52715707947099E-16  -1.52756558701033E-16  -3.06360518773328E-15   0.00000000000000E+00   0.00000000000000E+00
      0.00000000000000E+00   0.00000000000000E+00  -1.95982589014861E-19  -8.87172169186049E-26  -1.95982677732078E-19
      1.35588227677349E-15   2.03666666666667E-01   2.03666666666667E-01   0.00000000000000E+00   0.00000000000000E+00
      1.52922062697084E-16   3.04786816811087E-20   1.52952541378766E-16   1.58359365698451E-15   0.00000000000000E+00
      0.00000000000000E+00   0.00000000000000E+00   0.00000000000000E+00   0.00000000000000E+00   0.00000000000000E+00
      0.00000000000000E+00   1.24129253975278E-16
      9.28888888888889E-02
      0.00000000000000E+00   0.00000000000000E+00   0.00000000000000E+00   0.00000000000000E+00  -4.26169020396445E-20
     -2.23235287602543E-16  -2.23277904504583E-16  -3.13819316051457E-15   0.00000000000000E+00   0.00000000000000E+00
      0.00000000000000E+00   0.00000000000000E+00  -1.96258651598252E-19  -1.07085758341478E-25  -1.96258758684010E-19
      1.35588227677344E-15   2.78666666666667E-01   2.78666666666667E-01   0.00000000000000E+00   0.00000000000000E+00
      2.23445727310759E-16   2.84359525081268E-20   2.23474163263267E-16   1.66523134845150E-15   0.00000000000000E+00
      0.00000000000000E+00   0.00000000000000E+00   0.00000000000000E+00   0.00000000000000E+00   0.00000000000000E+00
      0.00000000000000E+00   1.17079535289632E-16
      1.17888888888889E-01
      0.00000000000000E+00   0.00000000000000E+00   0.00000000000000E+00   0.00000000000000E+00  -4.32014627665478E-20
     -3.13698398348716E-16  -3.13741599811482E-16  -3.21163142263114E-15   0.00000000000000E+00   0.00000000000000E+00
      0.00000000000000E+00   0.00000000000000E+00  -1.94421749248615E-19   2.90580802780313E-25  -1.94421458667812E-19
      1.35588227677338E-15   3.53666666666667E-01   3.53666666666667E-01   0.00000000000000E+00   0.00000000000000E+00
      3.13907536177129E-16   2.84850930213216E-20   3.13936021270150E-16   1.74570183294965E-15   0.00000000000000E+00
      0.00000000000000E+00   0.00000000000000E+00   0.00000000000000E+00   0.00000000000000E+00   0.00000000000000E+00
      0.00000000000000E+00   1.10047312908118E-16
      1.42888888888889E-01
      0.00000000000000E+00   0.00000000000000E+00   0.00000000000000E+00   0.00000000000000E+00   1.93543011741821E-20
     -4.19579770492727E-16  -4.19560416191552E-16  -3.28390459683985E-15   0.00000000000000E+00   0.00000000000000E+00
      0.00000000000000E+00   0.00000000000000E+00  -1.93545027997456E-19  -3.98183801035699E-26  -1.93545067815836E-19
      1.35588227677330E-15   4.28666666666667E-01   4.28666666666667E-01   0.00000000000000E+00   0.00000000000000E+00
      4.19725490804676E-16   2.84704546914779E-20   4.19753961259368E-16   1.82498609226543E-15   0.00000000000000E+00
      0.00000000000000E+00   0.00000000000000E+00   0.00000000000000E+00   0.00000000000000E+00   0.00000000000000E+00
      0.00000000000000E+00   1.03036227801125E-16
      1.67888888888889E-01
      0.00000000000000E+00   0.00000000000000E+00   0.00000000000000E+00   0.00000000000000E+00  -4.32008302145967E-20
     -5.32097213262170E-16  -5.32140414092385E-16  -3.35493483306229E-15   0.00000000000000E+00   0.00000000000000E+00
      0.00000000000000E+00   0.00000000000000E+00  -1.96068386879393E-19  -6.88259187959916E-26  -1.96068455705312E-19
      1.35588227677322E-15   5.03666666666667E-01   5.03666666666667E-01   0.00000000000000E+00   0.00000000000000E+00
      5.32308706976526E-16   2.77755715638668E-20   5.32336482548090E-16   1.90300410714163E-15   0.00000000000000E+00
      0.00000000000000E+00   0.00000000000000E+00   0.00000000000000E+00   0.00000000000000E+00   0.00000000000000E+00
      0.00000000000000E+00   9.60484491474431E-17
      1.92888888888889E-01
      0.00000000000000E+00   0.00000000000000E+00   0.00000000000000E+00   0.00000000000000E+00  -4.35706291156044E-20
     -6.55955356097474E-16  -6.55998926726589E-16  -3.42455002498614E-15   0.00000000000000E+00   0.00000000000000E+00
      0.00000000000000E+00   0.00000000000000E+00  -1.96944559597875E-19  -1.42628631665855E-25  -1.96944702226506E-19
      1.35588227677313E-15   5.78666666666667E-01   5.78666666666667E-01   0.00000000000000E+00   0.00000000000000E+00
      6.56167386263583E-16   2.84851652311039E-20   6.56195871428814E-16   1.97958489929096E-15   0.00000000000000E+00
      0.00000000000000E+00   0.00000000000000E+00   0.00000000000000E+00   0.00000000000000E+00   0.00000000000000E+00
      0.00000000000000E+00   8.90828489220552E-17
      2.17888888888889E-01
      0.00000000000000E+00   0.00000000000000E+00   0.00000000000000E+00   0.00000000000000E+00  -4.36385157766506E-20
     -7.83455796288581E-16  -7.83499434804358E-16  -3.49247422627650E-15   0.00000000000000E+00   0.00000000000000E+00
      0.00000000000000E+00   0.00000000000000E+00  -1.96651484434681E-19  -5.61316080178600E-27  -1.96651490047842E-19
      1.35588227677304E-15   6.53666666666667E-01   6.53666666666667E-01   0.00000000000000E+00   0.00000000000000E+00
      7.83666826306578E-16   2.92599878281265E-20   7.83696086294406E-16   2.05445798156057E-15   0.00000000000000E+00
      0.00000000000000E+00   0.00000000000000E+00   0.00000000000000E+00   0.00000000000000E+00   0.00000000000000E+00
      0.00000000000000E+00   8.21339679428823E-17
      2.42888888888889E-01
      0.00000000000000E+00   0.00000000000000E+00   0.00000000000000E+00   0.00000000000000E+00  -4.22632057181137E-20
     -8.71709300090876E-16  -8.71751563296594E-16  -3.55837517805766E-15   0.00000000000000E+00   0.00000000000000E+00
      0.00000000000000E+00   0.00000000000000E+00  -1.99255068143134E-19  -4.35049839688882E-26  -1.99255111648118E-19
      1.35588227677298E-15   7.28666666666667E-01   7.28666666666667E-01   0.00000000000000E+00   0.00000000000000E+00
      8.71922330062385E-16   2.84883458578631E-20   8.71950818408243E-16   2.12729981257507E-15   0.00000000000000E+00
      0.00000000000000E+00   0.00000000000000E+00   0.00000000000000E+00   0.00000000000000E+00   0.00000000000000E+00
      0.00000000000000E+00   7.51930887096081E-17
      2.67888888888889E-01
      0.00000000000000E+00   0.00000000000000E+00   0.00000000000000E+00   0.00000000000000E+00  -4.35468257699590E-20
     -9.15233915611946E-16  -9.15277462437716E-16  -3.62201744625467E-15   0.00000000000000E+00   0.00000000000000E+00
      0.00000000000000E+00   0.00000000000000E+00  -1.98862841804635E-19  -1.09114951788340E-25  -1.98862950919587E-19
      1.35588227677294E-15   8.03666666666667E-01   8.03666666666667E-01   0.00000000000000E+00   0.00000000000000E+00
      9.15447818125593E-16   2.85072630405960E-20   9.15476325388634E-16   2.19788429629884E-15   0.00000000000000E+00
      0.00000000000000E+00   0.00000000000000E+00   0.00000000000000E+00   0.00000000000000E+00   0.00000000000000E+00
      0.00000000000000E+00   6.82508731828987E-17
      2.92888888888889E-01
      0.00000000000000E+00   0.00000000000000E+00   0.00000000000000E+00   0.00000000000000E+00  -4.38482849123216E-20
     -9.34688042226672E-16  -9.34731890511585E-16  -3.68348011926427E-15   0.00000000000000E+00   0.00000000000000E+00
      0.00000000000000E+00   0.00000000000000E+00  -1.99139022893532E-19  -1.28803359793605E-26  -1.99139035773868E-19
      1.35588227677291E-15   8.78666666666667E-01   8.78666666666667E-01   0.00000000000000E+00   0.00000000000000E+00
      9.34902517554496E-16   2.85119928606446E-20   9.34931029547357E-16   2.26629824462339E-15   0.00000000000000E+00
      0.00000000000000E+00   0.00000000000000E+00   0.00000000000000E+00   0.00000000000000E+00   0.00000000000000E+00
      0.00000000000000E+00   6.12995978679746E-17
      3.17888888888889E-01
      0.00000000000000E+00   0.00000000000000E+00   0.00000000000000E+00   0.00000000000000E+00  -4.50475172139241E-20
     -9.46770705399682E-16  -9.46815752916896E-16  -3.74319683787273E-15   0.00000000000000E+00   0.00000000000000E+00
      0.00000000000000E+00   0.00000000000000E+00  -1.98423930863923E-19   2.09789227279601E-26  -1.98423909885000E-19
      1.35588227677288E-15   9.53666666666667E-01   9.53666666666667E-01   0.00000000000000E+00   0.00000000000000E+00
      9.46985660103947E-16   2.85167228329586E-20   9.47014176826780E-16   2.33298062687413E-15   0.00000000000000E+00
      0.00000000000000E+00   0.00000000000000E+00   0.00000000000000E+00   0.00000000000000E+00   0.00000000000000E+00
      0.00000000000000E+00   5.43339342257098E-17
      3.42888888888889E-01
      0.00000000000000E+00   0.00000000000000E+00   0.00000000000000E+00   0.00000000000000E+00  -4.56746730442290E-20
     -9.59411444309441E-16  -9.59457118982485E-16  -3.80171382080182E-15   0.00000000000000E+00   0.00000000000000E+00
      0.00000000000000E+00   0.00000000000000E+00  -1.98574464004275E-19   9.92198649728311E-26  -1.98574364784410E-19
      1.35588227677286E-15   1.02866666666667E+00   1.02866666666667E+00   0.00000000000000E+00   0.00000000000000E+00
      9.59627172112313E-16   2.85212349561046E-20   9.59655693347269E-16   2.39848086750907E-15   0.00000000000000E+00
      0.00000000000000E+00   0.00000000000000E+00   0.00000000000000E+00   0.00000000000000E+00   0.00000000000000E+00
      0.00000000000000E+00   4.73506765198903E-17
      3.67888888888889E-01
      0.00000000000000E+00   0.00000000000000E+00   0.00000000000000E+00   0.00000000000000E+00  -4.55585178258253E-20
     -9.73770537933401E-16  -9.73816096451227E-16  -3.85945006530550E-15   0.00000000000000E+00   0.00000000000000E+00
      0.00000000000000E+00   0.00000000000000E+00  -1.99244193396491E-19   1.69367450207381E-25  -1.99244024029041E-19
      1.35588227677283E-15   1.10366666666667E+00   1.10366666666667E+00   0.00000000000000E+00   0.00000000000000E+00
      9.73986814747437E-16   2.85257278192340E-20   9.74015340475256E-16   2.46321963874746E-15   0.00000000000000E+00
      0.00000000000000E+00   0.00000000000000E+00   0.00000000000000E+00   0.00000000000000E+00   0.00000000000000E+00
      0.00000000000000E+00   4.03481497852144E-17
      3.92888888888889E-01
      0.00000000000000E+00   0.00000000000000E+00   0.00000000000000E+00   0.00000000000000E+00  -4.52965687006221E-20
     -9.85367884090633E-16  -9.85413180659333E-16  -3.91664627043332E-15   0.00000000000000E+00   0.00000000000000E+00
      0.00000000000000E+00   0.00000000000000E+00  -2.00046641503253E-19  -3.10480464970111E-26  -2.00046672551300E-19
      1.35588227677281E-15   1.17866666666667E+00   1.17866666666667E+00   0.00000000000000E+00   0.00000000000000E+00
      9.85584697266055E-16   2.85300658298738E-20   9.85613227331885E-16   2.52743830058117E-15   0.00000000000000E+00
      0.00000000000000E+00   0.00000000000000E+00   0.00000000000000E+00   0.00000000000000E+00   0.00000000000000E+00
      0.00000000000000E+00   3.33256930793492E-17
      4.17888888888889E-01
      0.00000000000000E+00   0.00000000000000E+00   0.00000000000000E+00   0.00000000000000E+00  -4.44040750590702E-20
     -9.92899533650899E-16  -9.92943937725958E-16  -3.97341923142095E-15   0.00000000000000E+00   0.00000000000000E+00
      0.00000000000000E+00   0.00000000000000E+00  -2.01568768053031E-19  -9.29966264464758E-26  -2.01568861049658E-19
      1.35588227677278E-15   1.25366666666667E+00   1.25366666666667E+00   0.00000000000000E+00   0.00000000000000E+00
      9.93116972065312E-16   2.85345216960800E-20   9.93145506587008E-16   2.59125364697094E-15   0.00000000000000E+00
      0.00000000000000E+00   0.00000000000000E+00   0.00000000000000E+00   0.00000000000000E+00   0.00000000000000E+00
      0.00000000000000E+00   2.62833076772258E-17
      4.42888888888889E-01
      0.00000000000000E+00   0.00000000000000E+00   0.00000000000000E+00   0.00000000000000E+00  -4.49616487767893E-20
     -9.99983370150911E-16  -1.00002833179969E-15  -4.02982278420953E-15   0.00000000000000E+00   0.00000000000000E+00
      0.00000000000000E+00   0.00000000000000E+00  -2.01559186025780E-19  -1.89392113497837E-26  -2.01559204964991E-19
      1.35588227677276E-15   1.32866666666667E+00   1.32866666666667E+00   0.00000000000000E+00   0.00000000000000E+00
      1.00020135189315E-15   2.85391115003627E-20   1.00022989100465E-15   2.65471907265152E-15   0.00000000000000E+00
      0.00000000000000E+00   0.00000000000000E+00   0.00000000000000E+00   0.00000000000000E+00   0.00000000000000E+00
      0.00000000000000E+00   1.92214347852530E-17
      4.67888888888889E-01
      0.00000000000000E+00   0.00000000000000E+00   0.00000000000000E+00   0.00000000000000E+00  -4.43191856111623E-20
     -1.01019712450232E-15  -1.01024144368794E-15  -4.08588645889125E-15   0.00000000000000E+00   0.00000000000000E+00
      0.00000000000000E+00   0.00000000000000E+00  -2.02721633242926E-19   4.24460898973150E-26  -2.02721590796836E-19
      1.35588227677273E-15   1.40366666666667E+00   1.40366666666667E+00   0.00000000000000E+00   0.00000000000000E+00
      1.01041562137656E-15   2.85439021703048E-20   1.01044416527873E-15   2.71786337360183E-15   0.00000000000000E+00
      0.00000000000000E+00   0.00000000000000E+00   0.00000000000000E+00   0.00000000000000E+00   0.00000000000000E+00
      0.00000000000000E+00   1.21408085166924E-17
      4.92888888888889E-01
      0.00000000000000E+00   0.00000000000000E+00   0.00000000000000E+00   0.00000000000000E+00  -4.52472760586559E-20
     -1.02526748584654E-15  -1.02531273312259E-15  -4.14163386406938E-15   0.00000000000000E+00   0.00000000000000E+00
      0.00000000000000E+00   0.00000000000000E+00  -2.02321360359487E-19   5.82650341060648E-26  -2.02321302094453E-19
      1.35588227677270E-15   1.47866666666667E+00   1.47866666666667E+00   0.00000000000000E+00   0.00000000000000E+00
      1.02548650580283E-15   2.85486218607955E-20   1.02551505442469E-15   2.78070924122466E-15   0.00000000000000E+00
      0.00000000000000E+00   0.00000000000000E+00   0.00000000000000E+00   0.00000000000000E+00   0.00000000000000E+00
      0.00000000000000E+00   5.04234607203611E-18
      5.17888888888889E-01
      0.00000000000000E+00   0.00000000000000E+00   0.00000000000000E+00   0.00000000000000E+00  -4.61071803306225E-20
     -1.04296666297773E-15  -1.04301277015807E-15  -4.19708691425343E-15   0.00000000000000E+00   0.00000000000000E+00
      0.00000000000000E+00   0.00000000000000E+00  -2.01640488884658E-19  -2.28344271760447E-25  -2.01640717228930E-19
      1.35588227677252E-15   1.55366666666667E+00   1.55366666666667E+00   0.00000000000000E+00   0.00000000000000E+00
      1.04318587498303E-15   2.85358922636379E-20   1.04321441087529E-15   2.84327758187216E-15   0.00000000000000E+00
      0.00000000000000E+00   0.00000000000000E+00   0.00000000000000E+00   0.00000000000000E+00   0.00000000000000E+00
      0.00000000000000E+00  -2.07294439125542E-18
      5.42888888888889E-01
      0.00000000000000E+00   0.00000000000000E+00   0.00000000000000E+00   0.00000000000000E+00  -4.55160235762608E-20
     -1.06016591828466E-15  -1.06021143430824E-15  -4.25226234053262E-15   0.00000000000000E+00   0.00000000000000E+00
      0.00000000000000E+00   0.00000000000000E+00  -2.02884680818501E-19  -2.69983837300472E-26  -2.02884707816885E-19
      1.35588227677262E-15   1.62866666666667E+00   1.62866666666667E+00   0.00000000000000E+00   0.00000000000000E+00
      1.06038576265895E-15   2.85563570999770E-20   1.06041431901605E-15   2.90558410701032E-15   0.00000000000000E+00
      0.00000000000000E+00   0.00000000000000E+00   0.00000000000000E+00   0.00000000000000E+00   0.00000000000000E+00
      0.00000000000000E+00  -9.20404325032321E-18
      5.67888888888889E-01
      0.00000000000000E+00   0.00000000000000E+00   0.00000000000000E+00   0.00000000000000E+00  -4.78186055703986E-20
     -1.07963673241037E-15  -1.07968455101594E-15  -4.30716707071081E-15   0.00000000000000E+00   0.00000000000000E+00
      0.00000000000000E+00   0.00000000000000E+00  -2.01256052060787E-19   7.73986853408874E-26  -2.01255974662102E-19
      1.35588227677262E-15   1.70366666666667E+00   1.70366666666667E+00   0.00000000000000E+00   0.00000000000000E+00
      1.07985725450030E-15   2.85524903011414E-20   1.07988580699060E-15   2.96763477595046E-15   0.00000000000000E+00
      0.00000000000000E+00   0.00000000000000E+00   0.00000000000000E+00   0.00000000000000E+00   0.00000000000000E+00
      0.00000000000000E+00  -1.63499820122658E-17
      5.92888888888889E-01
      0.00000000000000E+00   0.00000000000000E+00   0.00000000000000E+00   0.00000000000000E+00  -4.78982251845131E-20
     -1.10952423143051E-15  -1.10957212965570E-15  -4.36179605358607E-15   0.00000000000000E+00   0.00000000000000E+00
      0.00000000000000E+00   0.00000000000000E+00  -2.01659708250389E-19  -2.09431008404458E-25  -2.01659917681398E-19
      1.35588227677258E-15   1.77866666666667E+00   1.77866666666667E+00   0.00000000000000E+00   0.00000000000000E+00
      1.10974528824140E-15   2.85013319767269E-20   1.10977378957338E-15   3.02942366106574E-15   0.00000000000000E+00
      0.00000000000000E+00   0.00000000000000E+00   0.00000000000000E+00   0.00000000000000E+00   0.00000000000000E+00
      0.00000000000000E+00  -2.35098842522395E-17
      6.17888888888889E-01
      0.00000000000000E+00   0.00000000000000E+00   0.00000000000000E+00   0.00000000000000E+00  -4.47444619958042E-20
     -1.15960283233256E-15  -1.15964757679456E-15  -4.41613231373820E-15   0.00000000000000E+00   0.00000000000000E+00
      0.00000000000000E+00   0.00000000000000E+00  -2.05283045750498E-19  -4.29203686861615E-26  -2.05283088670867E-19
      1.35588227677254E-15   1.85366666666667E+00   1.85366666666667E+00   0.00000000000000E+00   0.00000000000000E+00
      1.15982431158585E-15   2.85482973792178E-20   1.15985285988323E-15   3.09093302220253E-15   0.00000000000000E+00
      0.00000000000000E+00   0.00000000000000E+00   0.00000000000000E+00   0.00000000000000E+00   0.00000000000000E+00
      0.00000000000000E+00  -3.06829852368664E-17
      6.42888888888889E-01
      0.00000000000000E+00   0.00000000000000E+00   0.00000000000000E+00   0.00000000000000E+00  -4.44778352239518E-20
     -1.23261220811948E-15  -1.23265668595470E-15  -4.47014767377237E-15   0.00000000000000E+00   0.00000000000000E+00
      0.00000000000000E+00   0.00000000000000E+00  -2.05755141949954E-19  -4.19257320187489E-26  -2.05755183875686E-19
      1.35588227677248E-15   1.92866666666667E+00   1.92866666666667E+00   0.00000000000000E+00   0.00000000000000E+00
      1.23283387337569E-15   2.85677628942684E-20   1.23286244113858E-15   3.15213403175456E-15   0.00000000000000E+00
      0.00000000000000E+00   0.00000000000000E+00   0.00000000000000E+00   0.00000000000000E+00   0.00000000000000E+00
      0.00000000000000E+00  -3.78686347546668E-17
      6.67888888888889E-01
      0.00000000000000E+00   0.00000000000000E+00   0.00000000000000E+00   0.00000000000000E+00  -4.35471243771354E-20
     -1.31266662577833E-15  -1.31271017290271E-15  -4.52380301191925E-15   0.00000000000000E+00   0.00000000000000E+00
      0.00000000000000E+00   0.00000000000000E+00  -2.05103024299618E-19  -2.05486293110950E-26  -2.05103044848247E-19
      1.35588227677244E-15   2.00366666666667E+00   2.00366666666667E+00   0.00000000000000E+00   0.00000000000000E+00
      1.31288670744931E-15   2.85684982391874E-20   1.31291527594755E-15   3.21298702449875E-15   0.00000000000000E+00
      0.00000000000000E+00   0.00000000000000E+00   0.00000000000000E+00   0.00000000000000E+00   0.00000000000000E+00
      0.00000000000000E+00  -4.50662893519333E-17
      6.92888888888889E-01
      0.00000000000000E+00   0.00000000000000E+00   0.00000000000000E+00   0.00000000000000E+00  -4.04628592802663E-20
     -1.37844071691365E-15  -1.37848117977293E-15  -4.57704749454204E-15   0.00000000000000E+00   0.00000000000000E+00
      0.00000000000000E+00   0.00000000000000E+00  -2.07084342961790E-19  -1.67415275979601E-25  -2.07084510377066E-19
      1.35588227677245E-15   2.07866666666667E+00   2.07866666666667E+00   0.00000000000000E+00   0.00000000000000E+00
      1.37865968452142E-15   2.85797618943171E-20   1.37868826428331E-15   3.27344071781934E-15   0.00000000000000E+00
      0.00000000000000E+00   0.00000000000000E+00   0.00000000000000E+00   0.00000000000000E+00   0.00000000000000E+00
      0.00000000000000E+00  -5.22755000497567E-17
      7.17888888888889E-01
      0.00000000000000E+00   0.00000000000000E+00   0.00000000000000E+00   0.00000000000000E+00  -4.51648281398234E-20
     -1.42443989533860E-15  -1.42448506016674E-15  -4.62981644076694E-15   0.00000000000000E+00   0.00000000000000E+00
      0.00000000000000E+00   0.00000000000000E+00  -2.06361930502267E-19   8.59182279833143E-26  -2.06361844584039E-19
      1.35588227677258E-15   2.15366666666667E+00   2.15366666666667E+00   0.00000000000000E+00   0.00000000000000E+00
      1.42466283803797E-15   2.85839733577881E-20   1.42469142201133E-15   3.33343006396471E-15   0.00000000000000E+00
      0.00000000000000E+00   0.00000000000000E+00   0.00000000000000E+00   0.00000000000000E+00   0.00000000000000E+00
      0.00000000000000E+00  -5.94958999703503E-17
      7.42888888888889E-01
      0.00000000000000E+00   0.00000000000000E+00   0.00000000000000E+00   0.00000000000000E+00  -4.57873829307858E-20
     -1.45479486604045E-15  -1.45484065342338E-15  -4.68202769369875E-15   0.00000000000000E+00   0.00000000000000E+00
      0.00000000000000E+00   0.00000000000000E+00  -2.06860188345394E-19   3.57826075540505E-26  -2.06860152562786E-19
      1.35588227677284E-15   2.22866666666667E+00   2.22866666666667E+00   0.00000000000000E+00   0.00000000000000E+00
      1.45501892677451E-15   2.85868014424319E-20   1.45504751357595E-15   3.39287261063389E-15   0.00000000000000E+00
      0.00000000000000E+00   0.00000000000000E+00   0.00000000000000E+00   0.00000000000000E+00   0.00000000000000E+00
      0.00000000000000E+00  -6.67271937079757E-17
      7.67888888888889E-01
      0.00000000000000E+00   0.00000000000000E+00   0.00000000000000E+00   0.00000000000000E+00  -4.67836042518738E-20
     -1.47434176202671E-15  -1.47438854563096E-15  -4.73357737870193E-15   0.00000000000000E+00   0.00000000000000E+00
      0.00000000000000E+00   0.00000000000000E+00  -2.06455653054767E-19   1.78517485677784E-25  -2.06455474537282E-19
      1.35588227677209E-15   2.30366666666667E+00   2.30366666666667E+00   0.00000000000000E+00   0.00000000000000E+00
      1.47456641062686E-15   2.85904786322392E-20   1.47459500110550E-15   3.45166425008517E-15   0.00000000000000E+00
      0.00000000000000E+00   0.00000000000000E+00   0.00000000000000E+00   0.00000000000000E+00   0.00000000000000E+00
      0.00000000000000E+00  -7.39691481553310E-17
      7.92888888888889E-01
      0.00000000000000E+00   0.00000000000000E+00   0.00000000000000E+00   0.00000000000000E+00  -4.60011409679173E-20
     -1.48694381725699E-15  -1.48698981839796E-15  -4.78433877905139E-15   0.00000000000000E+00   0.00000000000000E+00
      0.00000000000000E+00   0.00000000000000E+00  -2.07752156729466E-19  -8.16707013000371E-26  -2.07752238400167E-19
      1.35588227677205E-15   2.37866666666667E+00   2.37866666666667E+00   0.00000000000000E+00   0.00000000000000E+00
      1.48716897708061E-15   2.85935557560537E-20   1.48719757063636E-15   3.50967808631266E-15   0.00000000000000E+00
      0.00000000000000E+00   0.00000000000000E+00   0.00000000000000E+00   0.00000000000000E+00   0.00000000000000E+00
      0.00000000000000E+00  -8.12215840333129E-17
      8.17888888888889E-01
      0.00000000000000E+00   0.00000000000000E+00   0.00000000000000E+00   0.00000000000000E+00  -4.68239289029817E-20
     -1.49518562871159E-15  -1.49523245264050E-15  -4.83417323726527E-15   0.00000000000000E+00   0.00000000000000E+00
      0.00000000000000E+00   0.00000000000000E+00  -2.07434290211940E-19  -5.54961361723906E-26  -2.07434345708076E-19
      1.35588227677200E-15   2.45366666666667E+00   2.45366666666667E+00   0.00000000000000E+00   0.00000000000000E+00
      1.49541129047393E-15   2.85965122762735E-20   1.49543988698620E-15   3.56677532870280E-15   0.00000000000000E+00
      0.00000000000000E+00   0.00000000000000E+00   0.00000000000000E+00   0.00000000000000E+00   0.00000000000000E+00
      0.00000000000000E+00  -8.84843682095306E-17
      8.42888888888889E-01
      0.00000000000000E+00   0.00000000000000E+00   0.00000000000000E+00   0.00000000000000E+00  -4.58862735253671E-20
     -1.50079061923871E-15  -1.50083650551223E-15  -4.88296549528323E-15   0.00000000000000E+00   0.00000000000000E+00
      0.00000000000000E+00   0.00000000000000E+00  -2.08866257759645E-19   6.52265488799168E-28  -2.08866257107380E-19
      1.35588227677195E-15   2.52866666666667E+00   2.52866666666667E+00   0.00000000000000E+00   0.00000000000000E+00
      1.50101677242619E-15   2.85993431475622E-20   1.50104537176934E-15   3.62284062581781E-15   0.00000000000000E+00
      0.00000000000000E+00   0.00000000000000E+00   0.00000000000000E+00   0.00000000000000E+00   0.00000000000000E+00
      0.00000000000000E+00  -9.57574073065302E-17
      8.67888888888889E-01
      0.00000000000000E+00   0.00000000000000E+00   0.00000000000000E+00   0.00000000000000E+00  -4.52019410435850E-20