DF-ISE text

Info {
  version   = 1.0
  type      = xyplot
  datasets  = [
    "time"
    "substrate OuterVoltage" "substrate InnerVoltage" "substrate QuasiFermiPotential" "substrate DisplacementCurrent" "substrate eCurrent"
    "substrate hCurrent" "substrate TotalCurrent" "substrate Charge" "source OuterVoltage" "source InnerVoltage"
    "source QuasiFermiPotential" "source DisplacementCurrent" "source eCurrent" "source hCurrent" "source TotalCurrent"
    "source Charge" "drain OuterVoltage" "drain InnerVoltage" "drain QuasiFermiPotential" "drain DisplacementCurrent"
    "drain eCurrent" "drain hCurrent" "drain TotalCurrent" "drain Charge" "gate OuterVoltage"
    "gate InnerVoltage" "gate QuasiFermiPotential" "gate DisplacementCurrent" "gate eCurrent" "gate hCurrent"
    "gate TotalCurrent" "gate Charge" ]
  functions = [
    Time
    OuterVoltage InnerVoltage QuasiFermiPotential DisplacementCurrent eCurrent
    hCurrent TotalCurrent Charge OuterVoltage InnerVoltage
    QuasiFermiPotential DisplacementCurrent eCurrent hCurrent TotalCurrent
    Charge OuterVoltage InnerVoltage QuasiFermiPotential DisplacementCurrent
    eCurrent hCurrent TotalCurrent Charge OuterVoltage
    InnerVoltage QuasiFermiPotential DisplacementCurrent eCurrent hCurrent
    TotalCurrent Charge ]
}

Data {
      0.00000000000000E+00
      0.00000000000000E+00   0.00000000000000E+00   0.00000000000000E+00   0.00000000000000E+00   1.50243296664145E-19
      7.46922620054398E-28   1.50243297411068E-19  -5.59448736310613E-15   0.00000000000000E+00   0.00000000000000E+00
      0.00000000000000E+00   0.00000000000000E+00  -7.91232375683744E-20  -1.90354429348885E-27  -7.91232394719186E-20
      2.13403964171455E-15   0.00000000000000E+00   0.00000000000000E+00   0.00000000000000E+00   0.00000000000000E+00
     -7.11200590960866E-20   1.15693738908928E-27  -7.11200579391492E-20   2.13403964171455E-15   1.00000000000000E+00
      1.00000000000000E+00   0.00000000000000E+00   0.00000000000000E+00   0.00000000000000E+00   0.00000000000000E+00
      0.00000000000000E+00   1.32640807967703E-15
      1.00000000000000E-02
      0.00000000000000E+00   0.00000000000000E+00   0.00000000000000E+00   0.00000000000000E+00   6.88541479937619E-17
     -3.75136784659706E-17   3.13404695277913E-17  -5.64405806597065E-15   0.00000000000000E+00   0.00000000000000E+00
      0.00000000000000E+00   0.00000000000000E+00  -4.72003709763944E-17  -4.10872520972388E-27  -4.72003709805031E-17
      2.13403964171453E-15   3.00000000000000E-02   3.00000000000000E-02   0.00000000000000E+00   0.00000000000000E+00
      1.58271281401175E-17   3.27733125944004E-20   1.58599014527119E-17   2.18629276382685E-15   1.00000000000000E+00
      1.00000000000000E+00   0.00000000000000E+00   0.00000000000000E+00   0.00000000000000E+00   0.00000000000000E+00
      0.00000000000000E+00   1.32372566042926E-15
      2.33333333333333E-02
      0.00000000000000E+00   0.00000000000000E+00   0.00000000000000E+00   0.00000000000000E+00  -3.91574755382976E-19
     -7.64866804887413E-17  -7.68782552441243E-17  -5.70985986231572E-15   0.00000000000000E+00   0.00000000000000E+00
      0.00000000000000E+00   0.00000000000000E+00  -6.26071754216092E-17   6.07462067858622E-27  -6.26071754155346E-17
      2.13403964171451E-15   7.00000000000000E-02   7.00000000000000E-02   0.00000000000000E+00   0.00000000000000E+00
      1.39463029897404E-16   2.24007622548316E-20   1.39485430659659E-16   2.25556871645164E-15   1.00000000000000E+00
      1.00000000000000E+00   0.00000000000000E+00   0.00000000000000E+00   0.00000000000000E+00   0.00000000000000E+00
      0.00000000000000E+00   1.32025150414957E-15
      4.24444444444445E-02
      0.00000000000000E+00   0.00000000000000E+00   0.00000000000000E+00   0.00000000000000E+00  -1.88940615619121E-19
     -1.36971837275050E-16  -1.37160777890670E-16  -5.80361349124346E-15   0.00000000000000E+00   0.00000000000000E+00
      0.00000000000000E+00   0.00000000000000E+00  -6.48739663613084E-17  -1.77808571146776E-27  -6.48739663630865E-17
      2.13403964171448E-15   1.27333333333333E-01   1.27333333333333E-01   0.00000000000000E+00   0.00000000000000E+00
      2.01974415059505E-16   6.03291942510157E-20   2.02034744253756E-16   2.35414185087556E-15   1.00000000000000E+00
      1.00000000000000E+00   0.00000000000000E+00   0.00000000000000E+00   0.00000000000000E+00   0.00000000000000E+00
      0.00000000000000E+00   1.31543199865342E-15
      6.74444444444444E-02
      0.00000000000000E+00   0.00000000000000E+00   0.00000000000000E+00   0.00000000000000E+00   3.95315605233890E-20
     -2.39265527214157E-16  -2.39225995653634E-16  -5.92520874641458E-15   0.00000000000000E+00   0.00000000000000E+00
      0.00000000000000E+00   0.00000000000000E+00  -6.51498466671715E-17  -7.83906807303731E-27  -6.51498466750106E-17
      2.13403964171443E-15   2.02333333333333E-01   2.02333333333333E-01   0.00000000000000E+00   0.00000000000000E+00
      3.04317237011965E-16   5.86053166790738E-20   3.04375842328644E-16   2.48186670628305E-15   1.00000000000000E+00
      1.00000000000000E+00   0.00000000000000E+00   0.00000000000000E+00   0.00000000000000E+00   0.00000000000000E+00
      0.00000000000000E+00   1.30930239841709E-15
      9.24444444444444E-02
      0.00000000000000E+00   0.00000000000000E+00   0.00000000000000E+00   0.00000000000000E+00  -6.62446090758348E-20
     -3.63706353542518E-16  -3.63772598151594E-16  -6.04551283801278E-15   0.00000000000000E+00   0.00000000000000E+00
      0.00000000000000E+00   0.00000000000000E+00  -6.52575685726110E-17  -1.83109549536563E-27  -6.52575685744421E-17
      2.13403964171438E-15   2.77333333333333E-01   2.77333333333333E-01   0.00000000000000E+00   0.00000000000000E+00
      4.28977613503773E-16   5.25532222631911E-20   4.29030166726036E-16   2.60820181829122E-15   1.00000000000000E+00
      1.00000000000000E+00   0.00000000000000E+00   0.00000000000000E+00   0.00000000000000E+00   0.00000000000000E+00
      0.00000000000000E+00   1.30327137800717E-15
      1.17444444444444E-01
      0.00000000000000E+00   0.00000000000000E+00   0.00000000000000E+00   0.00000000000000E+00  -2.15891556577727E-20
     -5.05273181712610E-16  -5.05294770868267E-16  -6.16437854084016E-15   0.00000000000000E+00   0.00000000000000E+00
      0.00000000000000E+00   0.00000000000000E+00  -6.53586848147745E-17  -3.68928186135586E-27  -6.53586848184637E-17
      2.13403964171432E-15   3.52333333333333E-01   3.52333333333333E-01   0.00000000000000E+00   0.00000000000000E+00
      5.70605302904887E-16   4.81527818446705E-20   5.70653455686731E-16   2.73304350493143E-15   1.00000000000000E+00
      1.00000000000000E+00   0.00000000000000E+00   0.00000000000000E+00   0.00000000000000E+00   0.00000000000000E+00
      0.00000000000000E+00   1.29729539419440E-15
      1.42444444444444E-01
      0.00000000000000E+00   0.00000000000000E+00   0.00000000000000E+00   0.00000000000000E+00   2.25493123592671E-20
     -6.65136026662130E-16  -6.65113477349771E-16  -6.28157080244394E-15   0.00000000000000E+00   0.00000000000000E+00
      0.00000000000000E+00   0.00000000000000E+00  -6.55208689905113E-17   1.86538636430300E-27  -6.55208689886459E-17
      2.13403964171425E-15   4.27333333333333E-01   4.27333333333333E-01   0.00000000000000E+00   0.00000000000000E+00
      7.30587523025116E-16   4.68233133011102E-20   7.30634346338417E-16   2.85616365549812E-15   1.00000000000000E+00
      1.00000000000000E+00   0.00000000000000E+00   0.00000000000000E+00   0.00000000000000E+00   0.00000000000000E+00
      0.00000000000000E+00   1.29136750523156E-15
      1.67444444444444E-01
      0.00000000000000E+00   0.00000000000000E+00   0.00000000000000E+00   0.00000000000000E+00  -3.74550914703149E-19
     -8.57646959112050E-16  -8.58021510026753E-16  -6.39672715874467E-15   0.00000000000000E+00   0.00000000000000E+00
      0.00000000000000E+00   0.00000000000000E+00  -6.52871812666368E-17  -5.40255915207693E-27  -6.52871812720394E-17
      2.13403964171416E-15   5.02333333333333E-01   5.02333333333333E-01   0.00000000000000E+00   0.00000000000000E+00
      9.23260844039947E-16   4.78472588450948E-20   9.23308691298792E-16   2.97719114820888E-15   1.00000000000000E+00
      1.00000000000000E+00   0.00000000000000E+00   0.00000000000000E+00   0.00000000000000E+00   0.00000000000000E+00
      0.00000000000000E+00   1.28549636882162E-15
      1.92444444444444E-01
      0.00000000000000E+00   0.00000000000000E+00   0.00000000000000E+00   0.00000000000000E+00  -2.92393396008406E-19
     -1.09443862633230E-15  -1.09473101972831E-15  -6.50933534436044E-15   0.00000000000000E+00   0.00000000000000E+00
      0.00000000000000E+00   0.00000000000000E+00  -6.54737765478426E-17  -8.35991826728150E-27  -6.54737765562026E-17
      2.13403964171406E-15   5.77333333333333E-01   5.77333333333333E-01   0.00000000000000E+00   0.00000000000000E+00
      1.16015660947810E-15   4.81868064098165E-20   1.16020479628451E-15   3.09559655880357E-15   1.00000000000000E+00
      1.00000000000000E+00   0.00000000000000E+00   0.00000000000000E+00   0.00000000000000E+00   0.00000000000000E+00
      0.00000000000000E+00   1.27969914384280E-15
      2.17444444444444E-01
      0.00000000000000E+00   0.00000000000000E+00   0.00000000000000E+00   0.00000000000000E+00  -1.57551715109014E-19
     -1.34181540804654E-15  -1.34197295976165E-15  -6.61875070064481E-15   0.00000000000000E+00   0.00000000000000E+00
      0.00000000000000E+00   0.00000000000000E+00  -6.57188784678577E-17   1.45223766861025E-28  -6.57188784677125E-17
      2.13403964171395E-15   6.52333333333333E-01   6.52333333333333E-01   0.00000000000000E+00   0.00000000000000E+00
      1.40764365413940E-15   4.81840899584093E-20   1.40769183822936E-15   3.21071231102455E-15   1.00000000000000E+00
      1.00000000000000E+00   0.00000000000000E+00   0.00000000000000E+00   0.00000000000000E+00   0.00000000000000E+00
      0.00000000000000E+00   1.27399874790630E-15
      2.42444444444444E-01
      0.00000000000000E+00   0.00000000000000E+00   0.00000000000000E+00   0.00000000000000E+00  -8.34731742698685E-20
     -1.52515575672691E-15  -1.52523922990118E-15  -6.72433216352111E-15   0.00000000000000E+00   0.00000000000000E+00
      0.00000000000000E+00   0.00000000000000E+00  -6.59067548547558E-17  -7.26038702275025E-28  -6.59067548554819E-17
      2.13403964171387E-15   7.27333333333333E-01   7.27333333333333E-01   0.00000000000000E+00   0.00000000000000E+00
      1.59109779275298E-15   4.81920036805373E-20   1.59114598475666E-15   3.32187428725024E-15   1.00000000000000E+00
      1.00000000000000E+00   0.00000000000000E+00   0.00000000000000E+00   0.00000000000000E+00   0.00000000000000E+00
      0.00000000000000E+00   1.26841823455700E-15
      2.67444444444444E-01
      0.00000000000000E+00   0.00000000000000E+00   0.00000000000000E+00   0.00000000000000E+00  -2.24361640928309E-19
     -1.62904445901994E-15  -1.62926882066087E-15  -6.82575729701886E-15   0.00000000000000E+00   0.00000000000000E+00
      0.00000000000000E+00   0.00000000000000E+00  -6.58752258688804E-17   8.09848029545162E-28  -6.58752258680706E-17
      2.13403964171383E-15   8.02333333333333E-01   8.02333333333333E-01   0.00000000000000E+00   0.00000000000000E+00
      1.69509584606595E-15   4.82004630005316E-20   1.69514404652895E-15   3.42875045241109E-15   1.00000000000000E+00
      1.00000000000000E+00   0.00000000000000E+00   0.00000000000000E+00   0.00000000000000E+00   0.00000000000000E+00
      0.00000000000000E+00   1.26296720289393E-15
      2.92444444444444E-01
      0.00000000000000E+00   0.00000000000000E+00   0.00000000000000E+00   0.00000000000000E+00  -1.39305964647383E-19
     -1.69201552248383E-15  -1.69215482844848E-15  -6.92335212001156E-15   0.00000000000000E+00   0.00000000000000E+00
      0.00000000000000E+00   0.00000000000000E+00  -6.60650158278371E-17  -9.54436677946884E-28  -6.60650158287916E-17
      2.13403964171379E-15   8.77333333333333E-01   8.77333333333333E-01   0.00000000000000E+00   0.00000000000000E+00
      1.75817163539698E-15   4.82088802931053E-20   1.75821984427727E-15   3.53168488276424E-15   1.00000000000000E+00
      1.00000000000000E+00   0.00000000000000E+00   0.00000000000000E+00   0.00000000000000E+00   0.00000000000000E+00
      0.00000000000000E+00   1.25762759553351E-15
      3.17444444444444E-01
      0.00000000000000E+00   0.00000000000000E+00   0.00000000000000E+00   0.00000000000000E+00  -2.77553599013882E-19
     -1.73837320489783E-15  -1.73865075849685E-15  -7.01804130576443E-15   0.00000000000000E+00   0.00000000000000E+00
      0.00000000000000E+00   0.00000000000000E+00  -6.60289944695015E-17   2.66470104757522E-27  -6.60289944668368E-17
      2.13403964171377E-15   9.52333333333333E-01   9.52333333333333E-01   0.00000000000000E+00   0.00000000000000E+00
      1.80463153585221E-15   4.82171114785347E-20   1.80467975296368E-15   3.63164160288462E-15   1.00000000000000E+00
      1.00000000000000E+00   0.00000000000000E+00   0.00000000000000E+00   0.00000000000000E+00   0.00000000000000E+00
      0.00000000000000E+00   1.25236006116602E-15
      3.42444444444444E-01
      0.00000000000000E+00   0.00000000000000E+00   0.00000000000000E+00   0.00000000000000E+00  -2.32623538377075E-20
     -1.77145136478875E-15  -1.77147462714259E-15  -7.11087024764163E-15   0.00000000000000E+00   0.00000000000000E+00
      0.00000000000000E+00   0.00000000000000E+00  -6.63809898199720E-17  -6.74192067179223E-27  -6.63809898267139E-17
      2.13403964171376E-15   1.02733333333333E+00   1.02733333333333E+00   0.00000000000000E+00   0.00000000000000E+00
      1.83780739177629E-15   4.82251930136334E-20   1.83785561696930E-15   3.72970366747638E-15   1.00000000000000E+00
      1.00000000000000E+00   0.00000000000000E+00   0.00000000000000E+00   0.00000000000000E+00   0.00000000000000E+00
      0.00000000000000E+00   1.24712693845149E-15
      3.67444444444445E-01
      0.00000000000000E+00   0.00000000000000E+00   0.00000000000000E+00   0.00000000000000E+00  -1.59512913105240E-20
     -1.79300047712755E-15  -1.79301642841886E-15  -7.20259987130735E-15   0.00000000000000E+00   0.00000000000000E+00
      0.00000000000000E+00   0.00000000000000E+00  -6.64876770452111E-17  -4.73375773330828E-27  -6.64876770499448E-17
      2.13403964171374E-15   1.10233333333333E+00   1.10233333333333E+00   0.00000000000000E+00   0.00000000000000E+00
      1.85945587228980E-15   4.82331789988568E-20   1.85950410546880E-15   3.82665573858641E-15   1.00000000000000E+00
      1.00000000000000E+00   0.00000000000000E+00   0.00000000000000E+00   0.00000000000000E+00   0.00000000000000E+00
      0.00000000000000E+00   1.24190449100719E-15
      3.92444444444445E-01
      0.00000000000000E+00   0.00000000000000E+00   0.00000000000000E+00   0.00000000000000E+00  -4.37786552996546E-20
     -1.81038266397622E-15  -1.81042644263152E-15  -7.29365226423583E-15   0.00000000000000E+00   0.00000000000000E+00
      0.00000000000000E+00   0.00000000000000E+00  -6.65565873126739E-17   2.39438230585783E-27  -6.65565873102795E-17
      2.13403964171373E-15   1.17733333333333E+00   1.17733333333333E+00   0.00000000000000E+00   0.00000000000000E+00
      1.87693478882439E-15   4.82411174113193E-20   1.87698302994180E-15   3.92293181529117E-15   1.00000000000000E+00
      1.00000000000000E+00   0.00000000000000E+00   0.00000000000000E+00   0.00000000000000E+00   0.00000000000000E+00
      0.00000000000000E+00   1.23668080723092E-15
      4.17444444444445E-01
      0.00000000000000E+00   0.00000000000000E+00   0.00000000000000E+00   0.00000000000000E+00  -3.68002791475721E-20
     -1.82851372661085E-15  -1.82855052688999E-15  -7.38423062116749E-15   0.00000000000000E+00   0.00000000000000E+00
      0.00000000000000E+00   0.00000000000000E+00  -6.66581199321640E-17  -1.62457118066828E-27  -6.66581199337886E-17
      2.13403964171372E-15   1.25233333333333E+00   1.25233333333333E+00   0.00000000000000E+00   0.00000000000000E+00
      1.89516039772222E-15   4.82491015588472E-20   1.89520864682378E-15   4.01874046195155E-15   1.00000000000000E+00
      1.00000000000000E+00   0.00000000000000E+00   0.00000000000000E+00   0.00000000000000E+00   0.00000000000000E+00
      0.00000000000000E+00   1.23145051750221E-15
      4.42444444444445E-01
      0.00000000000000E+00   0.00000000000000E+00   0.00000000000000E+00   0.00000000000000E+00   7.54894422617972E-21
     -1.84712569594645E-15  -1.84711814700223E-15  -7.47442929558064E-15   0.00000000000000E+00   0.00000000000000E+00
      0.00000000000000E+00   0.00000000000000E+00  -6.67991881883807E-17   4.54489962285851E-27  -6.67991881838358E-17
      2.13403964171372E-15   1.32733333333333E+00   1.32733333333333E+00   0.00000000000000E+00   0.00000000000000E+00
      1.91386907782862E-15   4.82573574435418E-20   1.91391733518607E-15   4.11417835690631E-15   1.00000000000000E+00
      1.00000000000000E+00   0.00000000000000E+00   0.00000000000000E+00   0.00000000000000E+00   0.00000000000000E+00
      0.00000000000000E+00   1.22621129696060E-15
      4.67444444444445E-01
      0.00000000000000E+00   0.00000000000000E+00   0.00000000000000E+00   0.00000000000000E+00   7.87985779837511E-20
     -1.86628240400265E-15  -1.86620360542467E-15  -7.56429200969567E-15   0.00000000000000E+00   0.00000000000000E+00
      0.00000000000000E+00   0.00000000000000E+00  -6.69637394150684E-17   2.14606528354924E-27  -6.69637394129223E-17
      2.13403964171320E-15   1.40233333333333E+00   1.40233333333333E+00   0.00000000000000E+00   0.00000000000000E+00
      1.93311952895809E-15   4.78158794959250E-20   1.93316734483759E-15   4.20929020681098E-15   1.00000000000000E+00
      1.00000000000000E+00   0.00000000000000E+00   0.00000000000000E+00   0.00000000000000E+00   0.00000000000000E+00
      0.00000000000000E+00   1.22096216117147E-15
      4.92444444444445E-01
      0.00000000000000E+00   0.00000000000000E+00   0.00000000000000E+00   0.00000000000000E+00  -9.56723044383377E-20
     -1.88761398048390E-15  -1.88770965278834E-15  -7.65383629910116E-15   0.00000000000000E+00   0.00000000000000E+00
      0.00000000000000E+00   0.00000000000000E+00  -6.68516996583795E-17  -8.67972533834295E-27  -6.68516996670592E-17
      2.13403964171323E-15   1.47733333333333E+00   1.47733333333333E+00   0.00000000000000E+00   0.00000000000000E+00
      1.95451311858618E-15   4.82338692198064E-20   1.95456135245540E-15   4.30409391468822E-15   1.00000000000000E+00
      1.00000000000000E+00   0.00000000000000E+00   0.00000000000000E+00   0.00000000000000E+00   0.00000000000000E+00
      0.00000000000000E+00   1.21570274269970E-15
      5.17444444444445E-01
      0.00000000000000E+00   0.00000000000000E+00   0.00000000000000E+00   0.00000000000000E+00  -1.75876439666892E-19
     -1.91139713351567E-15  -1.91157300995534E-15  -7.74306425001858E-15   0.00000000000000E+00   0.00000000000000E+00
      0.00000000000000E+00   0.00000000000000E+00  -6.68705433849502E-17   5.25900015121460E-27  -6.68705433796912E-17
      2.13403964171333E-15   1.55233333333333E+00   1.55233333333333E+00   0.00000000000000E+00   0.00000000000000E+00
      1.97839527153303E-15   4.82818019992741E-20   1.97844355333503E-15   4.39859159515093E-15   1.00000000000000E+00
      1.00000000000000E+00   0.00000000000000E+00   0.00000000000000E+00   0.00000000000000E+00   0.00000000000000E+00
      0.00000000000000E+00   1.21043301315431E-15
      5.42444444444445E-01
      0.00000000000000E+00   0.00000000000000E+00   0.00000000000000E+00   0.00000000000000E+00  -3.18780572721080E-20
     -1.93950076925049E-15  -1.93953264730776E-15  -7.83196796073704E-15   0.00000000000000E+00   0.00000000000000E+00
      0.00000000000000E+00   0.00000000000000E+00  -6.71318435076408E-17  -2.92765840204948E-27  -6.71318435105684E-17
      2.13403964171347E-15   1.62733333333333E+00   1.62733333333333E+00   0.00000000000000E+00   0.00000000000000E+00
      2.00661622526386E-15   4.82655544669530E-20   2.00666449081833E-15   4.49277514797158E-15   1.00000000000000E+00
      1.00000000000000E+00   0.00000000000000E+00   0.00000000000000E+00   0.00000000000000E+00   0.00000000000000E+00
      0.00000000000000E+00   1.20515317105197E-15
      5.67444444444445E-01
      0.00000000000000E+00   0.00000000000000E+00   0.00000000000000E+00   0.00000000000000E+00  -1.51401953863683E-19
     -1.98063631051104E-15  -1.98078771246490E-15  -7.92053123491846E-15   0.00000000000000E+00   0.00000000000000E+00
      0.00000000000000E+00   0.00000000000000E+00  -6.71043428413361E-17  -5.53010440092465E-28  -6.71043428418891E-17
      2.13403964171358E-15   1.70233333333333E+00   1.70233333333333E+00   0.00000000000000E+00   0.00000000000000E+00
      2.04784380279933E-15   4.82525074563946E-20   2.04789205530679E-15   4.58662803391017E-15   1.00000000000000E+00
      1.00000000000000E+00   0.00000000000000E+00   0.00000000000000E+00   0.00000000000000E+00   0.00000000000000E+00
      0.00000000000000E+00   1.19986355929470E-15
      5.92444444444445E-01
      0.00000000000000E+00   0.00000000000000E+00   0.00000000000000E+00   0.00000000000000E+00  -6.83451105015212E-20
     -2.05042213255699E-15  -2.05049047766749E-15  -8.00872816888888E-15   0.00000000000000E+00   0.00000000000000E+00
      0.00000000000000E+00   0.00000000000000E+00  -6.72782774814319E-17   5.43684802521335E-28  -6.72782774808882E-17
      2.13403964171361E-15   1.77733333333333E+00   1.77733333333333E+00   0.00000000000000E+00   0.00000000000000E+00
      2.11772050214539E-15   4.82530029851612E-20   2.11776875514838E-15   4.68012395597220E-15   1.00000000000000E+00
      1.00000000000000E+00   0.00000000000000E+00   0.00000000000000E+00   0.00000000000000E+00   0.00000000000000E+00
      0.00000000000000E+00   1.19456457120307E-15
      6.17444444444445E-01
      0.00000000000000E+00   0.00000000000000E+00   0.00000000000000E+00   0.00000000000000E+00   1.02531633013183E-21
     -2.16280126222055E-15  -2.16280023690422E-15  -8.09652013230357E-15   0.00000000000000E+00   0.00000000000000E+00
      0.00000000000000E+00   0.00000000000000E+00  -6.74376901832734E-17   5.83941350966794E-27  -6.74376901774339E-17
      2.13403964171358E-15   1.85233333333333E+00   1.85233333333333E+00   0.00000000000000E+00   0.00000000000000E+00
      2.23018962375306E-15   4.83033285975891E-20   2.23023792708165E-15   4.77322392792751E-15   1.00000000000000E+00
      1.00000000000000E+00   0.00000000000000E+00   0.00000000000000E+00   0.00000000000000E+00   0.00000000000000E+00
      0.00000000000000E+00   1.18925656266246E-15
      6.42444444444445E-01
      0.00000000000000E+00   0.00000000000000E+00   0.00000000000000E+00   0.00000000000000E+00  -1.33715010774111E-19
     -2.31198535123206E-15  -2.31211906624283E-15  -8.18385241960078E-15   0.00000000000000E+00   0.00000000000000E+00
      0.00000000000000E+00   0.00000000000000E+00  -6.73920337998288E-17  -6.36468494316580E-27  -6.73920338061935E-17
      2.13403964171352E-15   1.92733333333333E+00   1.92733333333333E+00   0.00000000000000E+00   0.00000000000000E+00
      2.37946278015639E-15   4.83198926285652E-20   2.37951110004902E-15   4.86587297977008E-15   1.00000000000000E+00
      1.00000000000000E+00   0.00000000000000E+00   0.00000000000000E+00   0.00000000000000E+00   0.00000000000000E+00
      0.00000000000000E+00   1.18393979811716E-15
      6.67444444444445E-01
      0.00000000000000E+00   0.00000000000000E+00   0.00000000000000E+00   0.00000000000000E+00  -8.53284825667470E-20
     -2.46295972962965E-15  -2.46304505811222E-15  -8.27065076555712E-15   0.00000000000000E+00   0.00000000000000E+00
      0.00000000000000E+00   0.00000000000000E+00  -6.75282881360578E-17   2.89021517124258E-27  -6.75282881331676E-17
      2.13403964171346E-15   2.00233333333333E+00   2.00233333333333E+00   0.00000000000000E+00   0.00000000000000E+00
      2.53052501947507E-15   4.83267703233232E-20   2.53057334624539E-15   4.95799668559742E-15   1.00000000000000E+00
      1.00000000000000E+00   0.00000000000000E+00   0.00000000000000E+00   0.00000000000000E+00   0.00000000000000E+00
      0.00000000000000E+00   1.17861443824623E-15
      6.92444444444445E-01
      0.00000000000000E+00   0.00000000000000E+00   0.00000000000000E+00   0.00000000000000E+00  -1.55254938632852E-19
     -2.57684155161693E-15  -2.57699680655557E-15  -8.35681700069165E-15   0.00000000000000E+00   0.00000000000000E+00
      0.00000000000000E+00   0.00000000000000E+00  -6.75454896668445E-17  -3.12734536810453E-29  -6.75454896668758E-17
      2.13403964171349E-15   2.07733333333333E+00   2.07733333333333E+00   0.00000000000000E+00   0.00000000000000E+00
      2.64449396351500E-15   4.83327074350396E-20   2.64454229622244E-15   5.04949680056347E-15   1.00000000000000E+00
      1.00000000000000E+00   0.00000000000000E+00   0.00000000000000E+00   0.00000000000000E+00   0.00000000000000E+00
      0.00000000000000E+00   1.17328055841468E-15
      7.17444444444445E-01
      0.00000000000000E+00   0.00000000000000E+00   0.00000000000000E+00   0.00000000000000E+00   4.93956067533166E-21
     -2.64390727257250E-15  -2.64390233301182E-15  -8.44222281104616E-15   0.00000000000000E+00   0.00000000000000E+00
      0.00000000000000E+00   0.00000000000000E+00  -6.77933700728269E-17  -1.97389497957894E-27  -6.77933700748008E-17
      2.13403964171365E-15   2.15233333333333E+00   2.15233333333333E+00   0.00000000000000E+00   0.00000000000000E+00
      2.71164736505676E-15   4.83380298632415E-20   2.71169570308662E-15   5.14024498909482E-15   1.00000000000000E+00
      1.00000000000000E+00   0.00000000000000E+00   0.00000000000000E+00   0.00000000000000E+00   0.00000000000000E+00
      0.00000000000000E+00   1.16793818023769E-15
      7.42444444444445E-01
      0.00000000000000E+00   0.00000000000000E+00   0.00000000000000E+00   0.00000000000000E+00  -2.13820221059359E-19
     -2.67773800751448E-15  -2.67795182773554E-15  -8.52670131646957E-15   0.00000000000000E+00   0.00000000000000E+00
      0.00000000000000E+00   0.00000000000000E+00  -6.76619379847240E-17  -7.22231405191993E-28  -6.76619379854462E-17
      2.13403964171402E-15   2.22733333333333E+00   2.22733333333333E+00   0.00000000000000E+00   0.00000000000000E+00
      2.74556541999189E-15   4.83457291010809E-20   2.74561376572099E-15   5.23007437453465E-15   1.00000000000000E+00
      1.00000000000000E+00   0.00000000000000E+00   0.00000000000000E+00   0.00000000000000E+00   0.00000000000000E+00
      0.00000000000000E+00   1.16258730022089E-15
      7.67444444444445E-01
      0.00000000000000E+00   0.00000000000000E+00   0.00000000000000E+00   0.00000000000000E+00  -5.66843219470076E-20
     -2.69430064141055E-15  -2.69435732573250E-15  -8.61003915180942E-15   0.00000000000000E+00   0.00000000000000E+00
      0.00000000000000E+00   0.00000000000000E+00  -6.79054290907095E-17   2.84285654156444E-27  -6.79054290878666E-17
      2.13403964171333E-15   2.30233333333333E+00   2.30233333333333E+00   0.00000000000000E+00   0.00000000000000E+00
      2.76221440292529E-15   4.83518950753252E-20   2.76226275482037E-15   5.31877160366522E-15   1.00000000000000E+00
      1.00000000000000E+00   0.00000000000000E+00   0.00000000000000E+00   0.00000000000000E+00   0.00000000000000E+00
      0.00000000000000E+00   1.15722790643085E-15
      7.92444444444445E-01
      0.00000000000000E+00   0.00000000000000E+00   0.00000000000000E+00   0.00000000000000E+00  -1.79049987983865E-19
     -2.70380315134917E-15  -2.70398220133715E-15  -8.69197827667127E-15   0.00000000000000E+00   0.00000000000000E+00
      0.00000000000000E+00   0.00000000000000E+00  -6.78685255068345E-17  -4.80177676592854E-27  -6.78685255116363E-17
      2.13403964171333E-15   2.37733333333333E+00   2.37733333333333E+00   0.00000000000000E+00   0.00000000000000E+00
      2.77180236919033E-15   4.83576584498547E-20   2.77185072684878E-15   5.40607865157748E-15   1.00000000000000E+00
      1.00000000000000E+00   0.00000000000000E+00   0.00000000000000E+00   0.00000000000000E+00   0.00000000000000E+00
      0.00000000000000E+00   1.15185998338045E-15
      8.17444444444445E-01
      0.00000000000000E+00   0.00000000000000E+00   0.00000000000000E+00   0.00000000000000E+00  -2.97631890641289E-19
     -2.71132433760501E-15  -2.71162196949565E-15  -8.77224608521706E-15   0.00000000000000E+00   0.00000000000000E+00
      0.00000000000000E+00   0.00000000000000E+00  -6.78348807252828E-17  -4.49110790715768E-28  -6.78348807257319E-17
      2.13403964171332E-15   2.45233333333333E+00   2.45233333333333E+00   0.00000000000000E+00   0.00000000000000E+00
      2.77940848702409E-15   4.83631972967428E-20   2.77945685022138E-15   5.49172293272766E-15   1.00000000000000E+00
      1.00000000000000E+00   0.00000000000000E+00   0.00000000000000E+00   0.00000000000000E+00   0.00000000000000E+00
      0.00000000000000E+00   1.14648351077604E-15
      8.42444444444445E-01
      0.00000000000000E+00   0.00000000000000E+00   0.00000000000000E+00   0.00000000000000E+00  -2.57236621478328E-20
     -2.71904715997620E-15  -2.71907288363835E-15  -8.85063395181565E-15   0.00000000000000E+00   0.00000000000000E+00
      0.00000000000000E+00   0.00000000000000E+00  -6.81912297958242E-17   9.08128140746745E-28  -6.81912297949161E-17
      2.13403964171332E-15   2.52733333333333E+00   2.52733333333333E+00   0.00000000000000E+00   0.00000000000000E+00
      2.78721574493103E-15   4.83685022362628E-20   2.78726411343326E-15   5.57549584913280E-15   1.00000000000000E+00
      1.00000000000000E+00   0.00000000000000E+00   0.00000000000000E+00   0.00000000000000E+00   0.00000000000000E+00
      0.00000000000000E+00   1.14109846096952E-15
      8.67444444444445E-01
      0.00000000000000E+00   0.00000000000000E+00   0.00000000000000E+00   0.00000000000000E+00  -5.98591130065071E-20