DF-ISE text

Info {
  version   = 1.0
  type      = xyplot
  datasets  = [
    "time"
    "substrate OuterVoltage" "substrate InnerVoltage" "substrate QuasiFermiPotential" "substrate DisplacementCurrent" "substrate eCurrent"
    "substrate hCurrent" "substrate TotalCurrent" "substrate Charge" "source OuterVoltage" "source InnerVoltage"
    "source QuasiFermiPotential" "source DisplacementCurrent" "source eCurrent" "source hCurrent" "source TotalCurrent"
    "source Charge" "drain OuterVoltage" "drain InnerVoltage" "drain QuasiFermiPotential" "drain DisplacementCurrent"
    "drain eCurrent" "drain hCurrent" "drain TotalCurrent" "drain Charge" "gate OuterVoltage"
    "gate InnerVoltage" "gate QuasiFermiPotential" "gate DisplacementCurrent" "gate eCurrent" "gate hCurrent"
    "gate TotalCurrent" "gate Charge" ]
  functions = [
    Time
    OuterVoltage InnerVoltage QuasiFermiPotential DisplacementCurrent eCurrent
    hCurrent TotalCurrent Charge OuterVoltage InnerVoltage
    QuasiFermiPotential DisplacementCurrent eCurrent hCurrent TotalCurrent
    Charge OuterVoltage InnerVoltage QuasiFermiPotential DisplacementCurrent
    eCurrent hCurrent TotalCurrent Charge OuterVoltage
    InnerVoltage QuasiFermiPotential DisplacementCurrent eCurrent hCurrent
    TotalCurrent Charge ]
}

Data {
      0.00000000000000E+00
      0.00000000000000E+00   0.00000000000000E+00   0.00000000000000E+00   0.00000000000000E+00  -1.52361578848010E-18
      2.02055884788073E-27  -1.52361578645955E-18  -2.14791223588146E-15   0.00000000000000E+00   0.00000000000000E+00
      0.00000000000000E+00   0.00000000000000E+00   8.18399821908914E-19  -1.32647956342769E-27   8.18399820582435E-19
      8.78194202527779E-16   0.00000000000000E+00   0.00000000000000E+00   0.00000000000000E+00   0.00000000000000E+00
      7.05215966570917E-19  -6.93805322199411E-28   7.05215965877111E-19   8.78194202527779E-16   1.00000000000000E+00
      1.00000000000000E+00   0.00000000000000E+00   0.00000000000000E+00   0.00000000000000E+00   0.00000000000000E+00
      0.00000000000000E+00   3.91523830825906E-16
      1.00000000000000E-02
      0.00000000000000E+00   0.00000000000000E+00   0.00000000000000E+00   0.00000000000000E+00   2.22493089948036E-16
     -2.44892174456552E-17   1.98003872502381E-16  -2.16866424711519E-15   0.00000000000000E+00   0.00000000000000E+00
      0.00000000000000E+00   0.00000000000000E+00  -9.85379753825858E-16   1.54949374145240E-27  -9.85379753824308E-16
      8.78190039255672E-16   3.00000000000000E-02   3.00000000000000E-02   0.00000000000000E+00   0.00000000000000E+00
      7.87365584278389E-16   1.02970435382157E-20   7.87375881321927E-16   9.03327126799304E-16   1.00000000000000E+00
      1.00000000000000E+00   0.00000000000000E+00   0.00000000000000E+00   0.00000000000000E+00   0.00000000000000E+00
      0.00000000000000E+00   3.87147081060220E-16
      2.33333333333333E-02
      0.00000000000000E+00   0.00000000000000E+00   0.00000000000000E+00   0.00000000000000E+00  -1.21171867847777E-18
     -4.44588527818047E-17  -4.56705714602825E-17  -2.19611562289002E-15   0.00000000000000E+00   0.00000000000000E+00
      0.00000000000000E+00   0.00000000000000E+00  -1.19207138124648E-15  -1.08915994886066E-27  -1.19207138124757E-15
      8.78184348763276E-16   7.00000000000000E-02   7.00000000000000E-02   0.00000000000000E+00   0.00000000000000E+00
      1.23772042980443E-15   2.15229034231018E-20   1.23774195270785E-15   9.36615853681953E-16   1.00000000000000E+00
      1.00000000000000E+00   0.00000000000000E+00   0.00000000000000E+00   0.00000000000000E+00   0.00000000000000E+00
      0.00000000000000E+00   3.81315420444788E-16
      4.24444444444445E-02
      0.00000000000000E+00   0.00000000000000E+00   0.00000000000000E+00   0.00000000000000E+00  -4.95885831992541E-19
     -6.55000373722305E-17  -6.59959232042230E-17  -2.23507447826141E-15   0.00000000000000E+00   0.00000000000000E+00
      0.00000000000000E+00   0.00000000000000E+00  -1.27137764079173E-15   3.93475387436949E-29  -1.27137764079169E-15
      8.78175911634542E-16   1.27333333333333E-01   1.27333333333333E-01   0.00000000000000E+00   0.00000000000000E+00
      1.33735477707614E-15   1.87869197767449E-20   1.33737356399591E-15   9.83935307080657E-16   1.00000000000000E+00
      1.00000000000000E+00   0.00000000000000E+00   0.00000000000000E+00   0.00000000000000E+00   0.00000000000000E+00
      0.00000000000000E+00   3.72963259546215E-16
      6.74444444444444E-02
      0.00000000000000E+00   0.00000000000000E+00   0.00000000000000E+00   0.00000000000000E+00   1.58830424468880E-18
     -9.28819414482851E-17  -9.12936372035963E-17  -2.28539855730903E-15   0.00000000000000E+00   0.00000000000000E+00
      0.00000000000000E+00   0.00000000000000E+00  -1.38512628118613E-15   1.35436235404293E-27  -1.38512628118477E-15
      8.78164369687399E-16   2.02333333333333E-01   2.02333333333333E-01   0.00000000000000E+00   0.00000000000000E+00
      1.47656814961288E-15  -1.48231224507419E-19   1.47641991838837E-15   1.04518739441938E-15   1.00000000000000E+00
      1.00000000000000E+00   0.00000000000000E+00   0.00000000000000E+00   0.00000000000000E+00   0.00000000000000E+00
      0.00000000000000E+00   3.62046793202258E-16
      9.24444444444444E-02
      0.00000000000000E+00   0.00000000000000E+00   0.00000000000000E+00   0.00000000000000E+00   4.88368893600247E-19
     -1.27926861391645E-16  -1.27438492498045E-16  -2.33501226030812E-15   0.00000000000000E+00   0.00000000000000E+00
      0.00000000000000E+00   0.00000000000000E+00  -1.50469052906896E-15   9.17236080799770E-28  -1.50469052906804E-15
      8.78152246328093E-16   2.77333333333333E-01   2.77333333333333E-01   0.00000000000000E+00   0.00000000000000E+00
      1.63203169039034E-15   9.73311757461686E-20   1.63212902156609E-15   1.10572141832801E-15   1.00000000000000E+00
      1.00000000000000E+00   0.00000000000000E+00   0.00000000000000E+00   0.00000000000000E+00   0.00000000000000E+00
      0.00000000000000E+00   3.51138595652013E-16
      1.17444444444444E-01
      0.00000000000000E+00   0.00000000000000E+00   0.00000000000000E+00   0.00000000000000E+00   1.66758512285981E-18
     -1.73995867188728E-16  -1.72328282065868E-16  -2.38389464551757E-15   0.00000000000000E+00   0.00000000000000E+00
      0.00000000000000E+00   0.00000000000000E+00  -1.63282690219515E-15   5.19350041113916E-28  -1.63282690219463E-15
      8.78139527067872E-16   3.52333333333333E-01   3.52333333333333E-01   0.00000000000000E+00   0.00000000000000E+00
      1.80513703654567E-15   1.81477148208561E-20   1.80515518426050E-15   1.16551883821375E-15   1.00000000000000E+00
      1.00000000000000E+00   0.00000000000000E+00   0.00000000000000E+00   0.00000000000000E+00   0.00000000000000E+00
      0.00000000000000E+00   3.40236280235952E-16
      1.42444444444444E-01
      0.00000000000000E+00   0.00000000000000E+00   0.00000000000000E+00   0.00000000000000E+00   2.33138381807765E-18
     -2.28052042417884E-16  -2.25720658599806E-16  -2.43199148451173E-15   0.00000000000000E+00   0.00000000000000E+00
      0.00000000000000E+00   0.00000000000000E+00  -1.77086112865552E-15  -4.04600589090400E-28  -1.77086112865593E-15
      8.78126190747466E-16   4.27333333333333E-01   4.27333333333333E-01   0.00000000000000E+00   0.00000000000000E+00
      1.99646074770887E-15   1.21039546863308E-19   1.99658178725574E-15   1.22452825134260E-15   1.00000000000000E+00
      1.00000000000000E+00   0.00000000000000E+00   0.00000000000000E+00   0.00000000000000E+00   0.00000000000000E+00
      0.00000000000000E+00   3.29337042421674E-16
      1.67444444444444E-01
      0.00000000000000E+00   0.00000000000000E+00   0.00000000000000E+00   0.00000000000000E+00   6.95670324399876E-20
     -2.87698577919574E-16  -2.87629010887134E-16  -2.47920978167685E-15   0.00000000000000E+00   0.00000000000000E+00
      0.00000000000000E+00   0.00000000000000E+00  -1.91666761743757E-15  -2.28038262488631E-28  -1.91666761743780E-15
      8.78112210363736E-16   5.02333333333333E-01   5.02333333333333E-01   0.00000000000000E+00   0.00000000000000E+00
      2.20425259036435E-15   4.40379605867995E-20   2.20429662832494E-15   1.28265983817255E-15   1.00000000000000E+00
      1.00000000000000E+00   0.00000000000000E+00   0.00000000000000E+00   0.00000000000000E+00   0.00000000000000E+00
      0.00000000000000E+00   3.18437733140563E-16
      1.92444444444444E-01
      0.00000000000000E+00   0.00000000000000E+00   0.00000000000000E+00   0.00000000000000E+00  -1.18756694398176E-18
     -3.57967076717727E-16  -3.59154643661709E-16  -2.52541814322096E-15   0.00000000000000E+00   0.00000000000000E+00
      0.00000000000000E+00   0.00000000000000E+00  -2.07425185554259E-15   1.15078561047872E-27  -2.07425185554144E-15
      8.78097555830472E-16   5.77333333333333E-01   5.77333333333333E-01   0.00000000000000E+00   0.00000000000000E+00
      2.43294608616491E-15   4.60413038236885E-19   2.43340649920315E-15   1.33978527397321E-15   1.00000000000000E+00
      1.00000000000000E+00   0.00000000000000E+00   0.00000000000000E+00   0.00000000000000E+00   0.00000000000000E+00
      0.00000000000000E+00   3.07535313417283E-16
      2.17444444444444E-01
      0.00000000000000E+00   0.00000000000000E+00   0.00000000000000E+00   0.00000000000000E+00  -6.40855163804953E-19
     -4.28853328564131E-16  -4.29494183727936E-16  -2.57046892340823E-15   0.00000000000000E+00   0.00000000000000E+00
      0.00000000000000E+00   0.00000000000000E+00  -2.24602676155980E-15  -1.14842636614380E-28  -2.24602676155991E-15
      8.78082197236597E-16   6.52333333333333E-01   6.52333333333333E-01   0.00000000000000E+00   0.00000000000000E+00
      2.67534782432779E-15   1.73120960056019E-19   2.67552094528785E-15   1.39575942148428E-15   1.00000000000000E+00
      1.00000000000000E+00   0.00000000000000E+00   0.00000000000000E+00   0.00000000000000E+00   0.00000000000000E+00
      0.00000000000000E+00   2.96627304687357E-16
      2.42444444444444E-01
      0.00000000000000E+00   0.00000000000000E+00   0.00000000000000E+00   0.00000000000000E+00  -4.48107231573106E-19
     -4.84971671390860E-16  -4.85419778622434E-16  -2.61425890426512E-15   0.00000000000000E+00   0.00000000000000E+00
      0.00000000000000E+00   0.00000000000000E+00  -2.43018681477546E-15   2.92705020593315E-28  -2.43018681477517E-15
      8.78066107264668E-16   7.27333333333333E-01   7.27333333333333E-01   0.00000000000000E+00   0.00000000000000E+00
      2.91558487960465E-15   2.17137929578239E-20   2.91560659339761E-15   1.45048079641247E-15   1.00000000000000E+00
      1.00000000000000E+00   0.00000000000000E+00   0.00000000000000E+00   0.00000000000000E+00   0.00000000000000E+00
      0.00000000000000E+00   2.85712000587984E-16
      2.67444444444444E-01
      0.00000000000000E+00   0.00000000000000E+00   0.00000000000000E+00   0.00000000000000E+00  -5.89403036020006E-19
     -5.21782894610879E-16  -5.22372297646899E-16  -2.65681406829799E-15   0.00000000000000E+00   0.00000000000000E+00
      0.00000000000000E+00   0.00000000000000E+00  -2.62857640112662E-15  -4.58297603943846E-29  -2.62857640112667E-15
      8.78049262028395E-16   8.02333333333333E-01   8.02333333333333E-01   0.00000000000000E+00   0.00000000000000E+00
      3.15143324243691E-15  -4.84543663343930E-19   3.15094869877356E-15   1.50397638808422E-15   1.00000000000000E+00
      1.00000000000000E+00   0.00000000000000E+00   0.00000000000000E+00   0.00000000000000E+00   0.00000000000000E+00
      0.00000000000000E+00   2.74788418185368E-16
      2.92444444444444E-01
      0.00000000000000E+00   0.00000000000000E+00   0.00000000000000E+00   0.00000000000000E+00  -8.69414049395198E-19
     -5.48345463146250E-16  -5.49214877195646E-16  -2.69831519168694E-15   0.00000000000000E+00   0.00000000000000E+00
      0.00000000000000E+00   0.00000000000000E+00  -2.84285360604967E-15   4.09171213208372E-28  -2.84285360604926E-15
      8.78031640259372E-16   8.77333333333333E-01   8.77333333333334E-01   0.00000000000000E+00   0.00000000000000E+00
      3.39261051830025E-15  -5.42035055340356E-19   3.39206848324491E-15   1.55642747246857E-15   1.00000000000000E+00
      1.00000000000000E+00   0.00000000000000E+00   0.00000000000000E+00   0.00000000000000E+00   0.00000000000000E+00
      0.00000000000000E+00   2.63856078959002E-16
      3.17444444444444E-01
      0.00000000000000E+00   0.00000000000000E+00   0.00000000000000E+00   0.00000000000000E+00   6.60327518528625E-19
     -5.69121247536851E-16  -5.68460920018322E-16  -2.73900968155434E-15   0.00000000000000E+00   0.00000000000000E+00
      0.00000000000000E+00   0.00000000000000E+00  -3.07650472966219E-15  -9.54666544363880E-28  -3.07650472966314E-15
      8.78013221450798E-16   9.52333333333333E-01   9.52333333333333E-01   0.00000000000000E+00   0.00000000000000E+00
      3.64494609606755E-15   1.95536139165314E-20   3.64496564968146E-15   1.60808172467698E-15   1.00000000000000E+00
      1.00000000000000E+00   0.00000000000000E+00   0.00000000000000E+00   0.00000000000000E+00   0.00000000000000E+00
      0.00000000000000E+00   2.52914735426555E-16
      3.42444444444444E-01
      0.00000000000000E+00   0.00000000000000E+00   0.00000000000000E+00   0.00000000000000E+00   1.84926297003883E-18
     -5.81530065036026E-16  -5.79680802065988E-16  -2.77910666715444E-15   0.00000000000000E+00   0.00000000000000E+00
      0.00000000000000E+00   0.00000000000000E+00  -3.32883626604081E-15   1.84525175495491E-27  -3.32883626603897E-15
      8.77993983993876E-16   1.02733333333333E+00   1.02733333333333E+00   0.00000000000000E+00   0.00000000000000E+00
      3.90973800712875E-15  -1.22093902379341E-18   3.90851706810496E-15   1.65914854028124E-15   1.00000000000000E+00
      1.00000000000000E+00   0.00000000000000E+00   0.00000000000000E+00   0.00000000000000E+00   0.00000000000000E+00
      0.00000000000000E+00   2.41964142879331E-16
      3.67444444444445E-01
      0.00000000000000E+00   0.00000000000000E+00   0.00000000000000E+00   0.00000000000000E+00   4.42003865795399E-20
     -5.92376193665745E-16  -5.92331993279165E-16  -2.81874671713761E-15   0.00000000000000E+00   0.00000000000000E+00
      0.00000000000000E+00   0.00000000000000E+00  -3.59900039135614E-15   2.32920812436097E-28  -3.59900039135591E-15
      8.77973904186391E-16   1.10233333333333E+00   1.10233333333333E+00   0.00000000000000E+00   0.00000000000000E+00
      4.19108074002297E-15   2.51644612104219E-19   4.19133238463507E-15   1.70976888074422E-15   1.00000000000000E+00
      1.00000000000000E+00   0.00000000000000E+00   0.00000000000000E+00   0.00000000000000E+00   0.00000000000000E+00
      0.00000000000000E+00   2.31003932207001E-16
      3.92444444444445E-01
      0.00000000000000E+00   0.00000000000000E+00   0.00000000000000E+00   0.00000000000000E+00   6.03350687949349E-19
     -6.00003811692153E-16  -5.99400461004204E-16  -2.85801710066628E-15   0.00000000000000E+00   0.00000000000000E+00
      0.00000000000000E+00   0.00000000000000E+00  -3.89433347414693E-15   4.05244407241762E-28  -3.89433347414653E-15
      8.77952956364267E-16   1.17733333333333E+00   1.17733333333333E+00   0.00000000000000E+00   0.00000000000000E+00
      4.49365827928040E-15   7.56558703378817E-20   4.49373393515074E-15   1.76003055700369E-15   1.00000000000000E+00
      1.00000000000000E+00   0.00000000000000E+00   0.00000000000000E+00   0.00000000000000E+00   0.00000000000000E+00
      0.00000000000000E+00   2.20033587298327E-16
      4.17444444444445E-01
      0.00000000000000E+00   0.00000000000000E+00   0.00000000000000E+00   0.00000000000000E+00  -1.55333078865434E-18
     -6.08009295000559E-16  -6.09562625789214E-16  -2.89697007169474E-15   0.00000000000000E+00   0.00000000000000E+00
      0.00000000000000E+00   0.00000000000000E+00  -4.21190745749232E-15   6.61647115819279E-28  -4.21190745749166E-15
      8.77931113757506E-16   1.25233333333333E+00   1.25233333333333E+00   0.00000000000000E+00   0.00000000000000E+00
      4.82145257732733E-15   1.75059535484401E-20   4.82147008328088E-15   1.80998646562388E-15   1.00000000000000E+00
      1.00000000000000E+00   0.00000000000000E+00   0.00000000000000E+00   0.00000000000000E+00   0.00000000000000E+00
      0.00000000000000E+00   2.09052492313351E-16
      4.42444444444445E-01
      0.00000000000000E+00   0.00000000000000E+00   0.00000000000000E+00   0.00000000000000E+00  -7.83854427621755E-19
     -6.18857495735020E-16  -6.19641350162642E-16  -2.93563587287827E-15   0.00000000000000E+00   0.00000000000000E+00
      0.00000000000000E+00   0.00000000000000E+00  -4.55971436280344E-15   1.55358618912950E-28  -4.55971436280328E-15
      8.77908349362968E-16   1.32733333333333E+00   1.32733333333333E+00   0.00000000000000E+00   0.00000000000000E+00
      5.17828060804524E-15   1.07510492067656E-18   5.17935571296592E-15   1.85966752266918E-15   1.00000000000000E+00
      1.00000000000000E+00   0.00000000000000E+00   0.00000000000000E+00   0.00000000000000E+00   0.00000000000000E+00
      0.00000000000000E+00   1.98060000846124E-16
      4.67444444444445E-01
      0.00000000000000E+00   0.00000000000000E+00   0.00000000000000E+00   0.00000000000000E+00   5.02312094152602E-19
     -6.30559204734287E-16  -6.30056892640135E-16  -2.97403225193445E-15   0.00000000000000E+00   0.00000000000000E+00
      0.00000000000000E+00   0.00000000000000E+00  -4.93789125178671E-15  -1.14446582286729E-28  -4.93789125178682E-15
      8.77884636275558E-16   1.40233333333333E+00   1.40233333333333E+00   0.00000000000000E+00   0.00000000000000E+00
      5.56769080410169E-15   2.57340325277758E-19   5.56794814442696E-15   1.90909212592643E-15   1.00000000000000E+00
      1.00000000000000E+00   0.00000000000000E+00   0.00000000000000E+00   0.00000000000000E+00   0.00000000000000E+00
      0.00000000000000E+00   1.87055489732460E-16
      4.92444444444445E-01
      0.00000000000000E+00   0.00000000000000E+00   0.00000000000000E+00   0.00000000000000E+00  -7.84044048512341E-20
     -6.44114172679123E-16  -6.44192577083974E-16  -3.01217097747100E-15   0.00000000000000E+00   0.00000000000000E+00
      0.00000000000000E+00   0.00000000000000E+00  -5.34693947234038E-15   5.68959669073529E-28  -5.34693947233982E-15
      8.77859947386261E-16   1.47733333333333E+00   1.47733333333333E+00   0.00000000000000E+00   0.00000000000000E+00
      5.99110742947572E-15   2.46199480661725E-20   5.99113204942379E-15   1.95827264487656E-15   1.00000000000000E+00
      1.00000000000000E+00   0.00000000000000E+00   0.00000000000000E+00   0.00000000000000E+00   0.00000000000000E+00
      0.00000000000000E+00   1.76038385208175E-16
      5.17444444444445E-01
      0.00000000000000E+00   0.00000000000000E+00   0.00000000000000E+00   0.00000000000000E+00  -2.14894143765821E-21
     -6.54687358048068E-16  -6.54689506989505E-16  -3.05006125911811E-15   0.00000000000000E+00   0.00000000000000E+00
      0.00000000000000E+00   0.00000000000000E+00  -5.79224444327604E-15   4.95163074640298E-28  -5.79224444327554E-15
      8.77834254792665E-16   1.55233333333333E+00   1.55233333333333E+00   0.00000000000000E+00   0.00000000000000E+00
      6.44837523386236E-15  -1.44128359731913E-18   6.44693395026504E-15   2.00721883350668E-15   1.00000000000000E+00
      1.00000000000000E+00   0.00000000000000E+00   0.00000000000000E+00   0.00000000000000E+00   0.00000000000000E+00
      0.00000000000000E+00   1.65008170818770E-16
      5.42444444444445E-01
      0.00000000000000E+00   0.00000000000000E+00   0.00000000000000E+00   0.00000000000000E+00  -2.48552522894156E-19
     -6.67101092799905E-16  -6.67349645322799E-16  -3.08771037505833E-15   0.00000000000000E+00   0.00000000000000E+00
      0.00000000000000E+00   0.00000000000000E+00  -6.27640188749801E-15  -1.11841739324715E-28  -6.27640188749813E-15
      8.77807529388340E-16   1.62733333333333E+00   1.62733333333333E+00   0.00000000000000E+00   0.00000000000000E+00
      6.94345124448786E-15   3.00288333052745E-19   6.94375153282092E-15   2.05593845307334E-15   1.00000000000000E+00
      1.00000000000000E+00   0.00000000000000E+00   0.00000000000000E+00   0.00000000000000E+00   0.00000000000000E+00
      0.00000000000000E+00   1.53964392596655E-16
      5.67444444444445E-01
      0.00000000000000E+00   0.00000000000000E+00   0.00000000000000E+00   0.00000000000000E+00   3.65457833833662E-18
     -6.78652831730273E-16  -6.74998253391937E-16  -3.12512251040518E-15   0.00000000000000E+00   0.00000000000000E+00
      0.00000000000000E+00   0.00000000000000E+00  -6.80533911860519E-15  -5.38498257989647E-29  -6.80533911860524E-15
      8.77779740901750E-16   1.70233333333333E+00   1.70233333333333E+00   0.00000000000000E+00   0.00000000000000E+00
      7.48175599934944E-15  -1.41862735226414E-18   7.48033737199718E-15   2.10443609953879E-15   1.00000000000000E+00
      1.00000000000000E+00   0.00000000000000E+00   0.00000000000000E+00   0.00000000000000E+00   0.00000000000000E+00
      0.00000000000000E+00   1.42906669964638E-16
      5.92444444444445E-01
      0.00000000000000E+00   0.00000000000000E+00   0.00000000000000E+00   0.00000000000000E+00   1.28451495691478E-17
     -6.99143668997262E-16  -6.86298519428114E-16  -3.16229718412500E-15   0.00000000000000E+00   0.00000000000000E+00
      0.00000000000000E+00   0.00000000000000E+00  -7.37839400778088E-15  -2.37732571002995E-28  -7.37839400778112E-15
      8.77750858357209E-16   1.77733333333333E+00   1.77733333333333E+00   0.00000000000000E+00   0.00000000000000E+00
      8.06699649173318E-15  -2.30396452395248E-18   8.06469252720923E-15   2.15271161468438E-15   1.00000000000000E+00
      1.00000000000000E+00   0.00000000000000E+00   0.00000000000000E+00   0.00000000000000E+00   0.00000000000000E+00
      0.00000000000000E+00   1.31834711083407E-16
      6.17444444444445E-01
      0.00000000000000E+00   0.00000000000000E+00   0.00000000000000E+00   0.00000000000000E+00   5.52746804993555E-18
     -7.36659504077163E-16  -7.31132036027227E-16  -3.19922817555919E-15   0.00000000000000E+00   0.00000000000000E+00
      0.00000000000000E+00   0.00000000000000E+00  -8.00528076207909E-15  -5.06754572100440E-28  -8.00528076207959E-15
      8.77720850719492E-16   1.85233333333333E+00   1.85233333333333E+00   0.00000000000000E+00   0.00000000000000E+00
      8.73467093799890E-15   1.74186010794182E-18   8.73641279810684E-15   2.20075899843192E-15   1.00000000000000E+00
      1.00000000000000E+00   0.00000000000000E+00   0.00000000000000E+00   0.00000000000000E+00   0.00000000000000E+00
      0.00000000000000E+00   1.20748326407778E-16
      6.42444444444445E-01
      0.00000000000000E+00   0.00000000000000E+00   0.00000000000000E+00   0.00000000000000E+00   4.53931223303783E-17
     -7.77397582448397E-16  -7.32004460118018E-16  -3.23590300218895E-15   0.00000000000000E+00   0.00000000000000E+00
      0.00000000000000E+00   0.00000000000000E+00  -8.68458116940397E-15   1.31133421924011E-28  -8.68458116940384E-15
      8.77689687454840E-16   1.92733333333333E+00   1.92733333333333E+00   0.00000000000000E+00   0.00000000000000E+00
      9.41524613961178E-15   1.33948991006796E-18   9.41658562952185E-15   2.24856587964718E-15   1.00000000000000E+00
      1.00000000000000E+00   0.00000000000000E+00   0.00000000000000E+00   0.00000000000000E+00   0.00000000000000E+00
      0.00000000000000E+00   1.09647435086932E-16
      6.67444444444445E-01
      0.00000000000000E+00   0.00000000000000E+00   0.00000000000000E+00   0.00000000000000E+00   2.09972123471234E-17
     -8.12036394208774E-16  -7.91039181861651E-16  -3.27230247064067E-15   0.00000000000000E+00   0.00000000000000E+00
      0.00000000000000E+00   0.00000000000000E+00  -9.42979080186902E-15   2.55412620505766E-28  -9.42979080186877E-15
      8.77657338822850E-16   2.00233333333333E+00   2.00233333333333E+00   0.00000000000000E+00   0.00000000000000E+00
      1.02216179500975E-14  -7.87966367126024E-19   1.02208299837304E-14   2.29611306941098E-15   1.00000000000000E+00
      1.00000000000000E+00   0.00000000000000E+00   0.00000000000000E+00   0.00000000000000E+00   0.00000000000000E+00
      0.00000000000000E+00   9.85320624068473E-17
      6.92444444444445E-01
      0.00000000000000E+00   0.00000000000000E+00   0.00000000000000E+00   0.00000000000000E+00   1.31893178048153E-17
     -8.39130595602298E-16  -8.25941277797483E-16  -3.30839978207774E-15   0.00000000000000E+00   0.00000000000000E+00
      0.00000000000000E+00   0.00000000000000E+00  -1.02413856698031E-14   8.84013907310187E-28  -1.02413856698023E-14
      8.77623775837845E-16   2.07733333333333E+00   2.07733333333333E+00   0.00000000000000E+00   0.00000000000000E+00
      1.10673233340023E-14   3.61359750365554E-21   1.10673269475998E-14   2.34337367687412E-15   1.00000000000000E+00
      1.00000000000000E+00   0.00000000000000E+00   0.00000000000000E+00   0.00000000000000E+00   0.00000000000000E+00
      0.00000000000000E+00   8.74023293657780E-17
      7.17444444444445E-01
      0.00000000000000E+00   0.00000000000000E+00   0.00000000000000E+00   0.00000000000000E+00   9.50479301429253E-19
     -8.57573653711847E-16  -8.56623174410418E-16  -3.34415897642257E-15   0.00000000000000E+00   0.00000000000000E+00
      0.00000000000000E+00   0.00000000000000E+00  -1.11250409269024E-14   4.50187717789301E-28  -1.11250409269020E-14
      8.77588969962114E-16   2.15233333333333E+00   2.15233333333333E+00   0.00000000000000E+00   0.00000000000000E+00
      1.19816414428127E-14   2.26584997370371E-20   1.19816641013124E-14   2.39031156969290E-15   1.00000000000000E+00
      1.00000000000000E+00   0.00000000000000E+00   0.00000000000000E+00   0.00000000000000E+00   0.00000000000000E+00
      0.00000000000000E+00   7.62584367675575E-17
      7.42444444444445E-01
      0.00000000000000E+00   0.00000000000000E+00   0.00000000000000E+00   0.00000000000000E+00  -5.07162416435020E-19
     -8.72261530743477E-16  -8.72768693159912E-16  -3.37953316946684E-15   0.00000000000000E+00   0.00000000000000E+00
      0.00000000000000E+00   0.00000000000000E+00  -1.20896351497024E-14  -3.71279259814565E-28  -1.20896351497028E-14
      8.77552892666664E-16   2.22733333333333E+00   2.22733333333333E+00   0.00000000000000E+00   0.00000000000000E+00
      1.29624459198339E-14  -4.20769712108018E-20   1.29624038428627E-14   2.43687962987205E-15   1.00000000000000E+00
      1.00000000000000E+00   0.00000000000000E+00   0.00000000000000E+00   0.00000000000000E+00   0.00000000000000E+00
      0.00000000000000E+00   6.51006469281257E-17
      7.67444444444445E-01
      0.00000000000000E+00   0.00000000000000E+00   0.00000000000000E+00   0.00000000000000E+00  -1.34303934204383E-18
     -8.86225667050125E-16  -8.87568706392169E-16  -3.41446432985600E-15   0.00000000000000E+00   0.00000000000000E+00
      0.00000000000000E+00   0.00000000000000E+00  -1.31441641304088E-14  -9.73202786703708E-28  -1.31441641304098E-14
      8.77515515027443E-16   2.30233333333333E+00   2.30233333333333E+00   0.00000000000000E+00   0.00000000000000E+00
      1.40317152052945E-14   1.76315073923891E-20   1.40317328368019E-14   2.48301954826369E-15   1.00000000000000E+00
      1.00000000000000E+00   0.00000000000000E+00   0.00000000000000E+00   0.00000000000000E+00   0.00000000000000E+00
      0.00000000000000E+00   5.39292665648610E-17
      7.92444444444445E-01
      0.00000000000000E+00   0.00000000000000E+00   0.00000000000000E+00   0.00000000000000E+00  -1.17184262296650E-19
     -8.99932495882962E-16  -9.00049680145258E-16  -3.44888840135466E-15   0.00000000000000E+00   0.00000000000000E+00
      0.00000000000000E+00   0.00000000000000E+00  -1.42986441373501E-14  -7.46448960827896E-28  -1.42986441373509E-14
      8.77476807527714E-16   2.37733333333333E+00   2.37733333333333E+00   0.00000000000000E+00   0.00000000000000E+00
      1.51986758546960E-14   1.79628001816898E-20   1.51986938174961E-14   2.52866695997632E-15   1.00000000000000E+00
      1.00000000000000E+00   0.00000000000000E+00   0.00000000000000E+00   0.00000000000000E+00   0.00000000000000E+00
      0.00000000000000E+00   4.27446338506237E-17
      8.17444444444445E-01
      0.00000000000000E+00   0.00000000000000E+00   0.00000000000000E+00   0.00000000000000E+00   1.79640454607951E-19
     -9.12101452352042E-16  -9.11921811897434E-16  -3.48275086713438E-15   0.00000000000000E+00   0.00000000000000E+00
      0.00000000000000E+00   0.00000000000000E+00  -1.55599001511113E-14   3.81759217915902E-28  -1.55599001511109E-14
      8.77436740063507E-16   2.45233333333333E+00   2.45233333333333E+00   0.00000000000000E+00   0.00000000000000E+00
      1.64718045269446E-14   1.74360637617122E-20   1.64718219630084E-14   2.57376701661336E-15   1.00000000000000E+00
      1.00000000000000E+00   0.00000000000000E+00   0.00000000000000E+00   0.00000000000000E+00   0.00000000000000E+00
      0.00000000000000E+00   3.15471104575061E-17
      8.42444444444445E-01
      0.00000000000000E+00   0.00000000000000E+00   0.00000000000000E+00   0.00000000000000E+00   2.80264003357181E-19
     -9.21552831882928E-16  -9.21272567879571E-16  -3.51603264523231E-15   0.00000000000000E+00   0.00000000000000E+00
      0.00000000000000E+00   0.00000000000000E+00  -1.69395555372494E-14   4.42646799017313E-28  -1.69395555372490E-14
      8.77395282121196E-16   2.52733333333333E+00   2.52733333333333E+00   0.00000000000000E+00   0.00000000000000E+00
      1.78608107233143E-14   1.73818143350168E-20   1.78608281051286E-14   2.61830028635115E-15   1.00000000000000E+00
      1.00000000000000E+00   0.00000000000000E+00   0.00000000000000E+00   0.00000000000000E+00   0.00000000000000E+00
      0.00000000000000E+00   2.03370767599617E-17
      8.67444444444445E-01
      0.00000000000000E+00   0.00000000000000E+00   0.00000000000000E+00   0.00000000000000E+00  -1.36397079993625E-18