DF-ISE text

Info {
  version   = 1.0
  type      = xyplot
  datasets  = [
    "time"
    "substrate OuterVoltage" "substrate InnerVoltage" "substrate QuasiFermiPotential" "substrate DisplacementCurrent" "substrate eCurrent"
    "substrate hCurrent" "substrate TotalCurrent" "substrate Charge" "source OuterVoltage" "source InnerVoltage"
    "source QuasiFermiPotential" "source DisplacementCurrent" "source eCurrent" "source hCurrent" "source TotalCurrent"
    "source Charge" "drain OuterVoltage" "drain InnerVoltage" "drain QuasiFermiPotential" "drain DisplacementCurrent"
    "drain eCurrent" "drain hCurrent" "drain TotalCurrent" "drain Charge" "gate OuterVoltage"
    "gate InnerVoltage" "gate QuasiFermiPotential" "gate DisplacementCurrent" "gate eCurrent" "gate hCurrent"
    "gate TotalCurrent" "gate Charge" ]
  functions = [
    Time
    OuterVoltage InnerVoltage QuasiFermiPotential DisplacementCurrent eCurrent
    hCurrent TotalCurrent Charge OuterVoltage InnerVoltage
    QuasiFermiPotential DisplacementCurrent eCurrent hCurrent TotalCurrent
    Charge OuterVoltage InnerVoltage QuasiFermiPotential DisplacementCurrent
    eCurrent hCurrent TotalCurrent Charge OuterVoltage
    InnerVoltage QuasiFermiPotential DisplacementCurrent eCurrent hCurrent
    TotalCurrent Charge ]
}

Data {
      0.00000000000000E+00
      0.00000000000000E+00   0.00000000000000E+00   0.00000000000000E+00   0.00000000000000E+00   1.13964766148051E-17
      4.11528792725166E-27   1.13964766189204E-17  -8.26876419277406E-15   0.00000000000000E+00   0.00000000000000E+00
      0.00000000000000E+00   0.00000000000000E+00  -7.44322654769448E-18   3.82511823308282E-28  -7.44322654731197E-18
      2.34315671154680E-15   0.00000000000000E+00   0.00000000000000E+00   0.00000000000000E+00   0.00000000000000E+00
     -3.95325006711170E-18  -4.49670657093216E-27  -3.95325007160841E-18   2.34315671154680E-15   3.00000000000000E+00
      3.00000000000000E+00   0.00000000000000E+00   0.00000000000000E+00   0.00000000000000E+00   0.00000000000000E+00
      0.00000000000000E+00   3.58245076968047E-15
      1.00000000000000E-02
      0.00000000000000E+00   0.00000000000000E+00   0.00000000000000E+00   0.00000000000000E+00   1.12804555639465E-17
     -7.63690343337742E-17  -6.50885787698277E-17  -8.30592230166233E-15   0.00000000000000E+00   0.00000000000000E+00
      0.00000000000000E+00   0.00000000000000E+00  -1.91633666278480E-06  -2.03037244197829E-25  -1.91633666278480E-06
      2.34313742640020E-15   3.00000000000000E-02   3.00000000000000E-02   0.00000000000000E+00   0.00000000000000E+00
      1.91633666284985E-06   3.67807836067181E-20   1.91633666284989E-06   2.39928560788747E-15   3.00000000000000E+00
      3.00000000000000E+00   0.00000000000000E+00   0.00000000000000E+00   0.00000000000000E+00   0.00000000000000E+00
      0.00000000000000E+00   3.56349926737467E-15
      2.33333333333333E-02
      0.00000000000000E+00   0.00000000000000E+00   0.00000000000000E+00   0.00000000000000E+00   2.11205549812712E-18
     -1.48054022639559E-16  -1.45941967141432E-16  -8.35655006464867E-15   0.00000000000000E+00   0.00000000000000E+00
      0.00000000000000E+00   0.00000000000000E+00  -3.93018040556443E-06  -3.83947268969789E-25  -3.93018040556443E-06
      2.34311660574055E-15   7.00000000000000E-02   7.00000000000000E-02   0.00000000000000E+00   0.00000000000000E+00
      3.93018040571037E-06   8.07384143493701E-22   3.93018040571037E-06   2.47362095739916E-15   3.00000000000000E+00
      3.00000000000000E+00   0.00000000000000E+00   0.00000000000000E+00   0.00000000000000E+00   0.00000000000000E+00
      0.00000000000000E+00   3.53981250150895E-15
      4.24444444444445E-02
      0.00000000000000E+00   0.00000000000000E+00   0.00000000000000E+00   0.00000000000000E+00   6.45224664363617E-18
     -2.27063111849241E-16  -2.20610865205605E-16  -8.43232325970560E-15   0.00000000000000E+00   0.00000000000000E+00
      0.00000000000000E+00   0.00000000000000E+00  -5.85746049690053E-06  -5.72653587570513E-25  -5.85746049690053E-06
      2.34309610115921E-15   1.27333333333333E-01   1.27333333333333E-01   0.00000000000000E+00   0.00000000000000E+00
      5.85746049712110E-06   3.94514953181519E-20   5.85746049712114E-06   2.57930355648873E-15   3.00000000000000E+00
      3.00000000000000E+00   0.00000000000000E+00   0.00000000000000E+00   0.00000000000000E+00   0.00000000000000E+00
      0.00000000000000E+00   3.50992360205764E-15
      6.74444444444444E-02
      0.00000000000000E+00   0.00000000000000E+00   0.00000000000000E+00   0.00000000000000E+00   2.25782791425013E-17
     -3.29291680402616E-16  -3.06713401260115E-16  -8.53919416542003E-15   0.00000000000000E+00   0.00000000000000E+00
      0.00000000000000E+00   0.00000000000000E+00  -7.05303215182429E-06  -6.96573616102083E-25  -7.05303215182429E-06
      2.34308308089142E-15   2.02333333333333E-01   2.02333333333333E-01   0.00000000000000E+00   0.00000000000000E+00
      7.05303215213096E-06   3.90424567313315E-20   7.05303215213100E-06   2.71618115198500E-15   3.00000000000000E+00
      3.00000000000000E+00   0.00000000000000E+00   0.00000000000000E+00   0.00000000000000E+00   0.00000000000000E+00
      0.00000000000000E+00   3.47992993254360E-15
      9.24444444444444E-02
      0.00000000000000E+00   0.00000000000000E+00   0.00000000000000E+00   0.00000000000000E+00  -1.27171223732960E-17
     -4.54389554802840E-16  -4.67106677176136E-16  -8.65411958691346E-15   0.00000000000000E+00   0.00000000000000E+00
      0.00000000000000E+00   0.00000000000000E+00  -7.40974581414601E-06  -7.38161156603688E-25  -7.40974581414601E-06
      2.34307915007419E-15   2.77333333333333E-01   2.77333333333333E-01   0.00000000000000E+00   0.00000000000000E+00
      7.40974581461305E-06   5.29238679569653E-20   7.40974581461311E-06   2.85155704963884E-15   3.00000000000000E+00
      3.00000000000000E+00   0.00000000000000E+00   0.00000000000000E+00   0.00000000000000E+00   0.00000000000000E+00
      0.00000000000000E+00   3.45948338720043E-15
      1.17444444444444E-01
      0.00000000000000E+00   0.00000000000000E+00   0.00000000000000E+00   0.00000000000000E+00  -3.25996632498353E-17
     -6.05042079711361E-16  -6.37641742961196E-16  -8.77218116447148E-15   0.00000000000000E+00   0.00000000000000E+00
      0.00000000000000E+00   0.00000000000000E+00  -7.52534725118492E-06  -7.55908330895853E-25  -7.52534725118492E-06
      2.34307787158864E-15   3.52333333333333E-01   3.52333333333333E-01   0.00000000000000E+00   0.00000000000000E+00
      7.52534725182250E-06   5.38067717396840E-20   7.52534725182256E-06   2.98532052228457E-15   3.00000000000000E+00
      3.00000000000000E+00   0.00000000000000E+00   0.00000000000000E+00   0.00000000000000E+00   0.00000000000000E+00
      0.00000000000000E+00   3.44378277059826E-15
      1.42444444444444E-01
      0.00000000000000E+00   0.00000000000000E+00   0.00000000000000E+00   0.00000000000000E+00  -2.24156656023225E-17
     -7.82603282296978E-16  -8.05018947899301E-16  -8.89023164398368E-15   0.00000000000000E+00   0.00000000000000E+00
      0.00000000000000E+00   0.00000000000000E+00  -7.59242747568053E-06  -7.43731212640151E-25  -7.59242747568053E-06
      2.34307712867964E-15   4.27333333333333E-01   4.27333333333333E-01   0.00000000000000E+00   0.00000000000000E+00
      7.59242747648549E-06   5.38328041007311E-20   7.59242747648554E-06   3.11719794476521E-15   3.00000000000000E+00
      3.00000000000000E+00   0.00000000000000E+00   0.00000000000000E+00   0.00000000000000E+00   0.00000000000000E+00
      0.00000000000000E+00   3.42995657053883E-15
      1.67444444444444E-01
      0.00000000000000E+00   0.00000000000000E+00   0.00000000000000E+00   0.00000000000000E+00   7.31733987152795E-18
     -9.96015059256885E-16  -9.88697719385357E-16  -9.00716305133987E-15   0.00000000000000E+00   0.00000000000000E+00
      0.00000000000000E+00   0.00000000000000E+00  -7.64026701625153E-06  -7.50570357096619E-25  -7.64026701625153E-06
      2.34307659839225E-15   5.02333333333333E-01   5.02333333333333E-01   0.00000000000000E+00   0.00000000000000E+00
      7.64026701724017E-06   5.38326517655667E-20   7.64026701724022E-06   3.24676771412788E-15   3.00000000000000E+00
      3.00000000000000E+00   0.00000000000000E+00   0.00000000000000E+00   0.00000000000000E+00   0.00000000000000E+00
      0.00000000000000E+00   3.41731873881972E-15
      1.92444444444444E-01
      0.00000000000000E+00   0.00000000000000E+00   0.00000000000000E+00   0.00000000000000E+00  -8.44436323881400E-18
     -1.24796783327833E-15  -1.25641219651714E-15  -9.12200284722671E-15   0.00000000000000E+00   0.00000000000000E+00
      0.00000000000000E+00   0.00000000000000E+00  -7.67835803671863E-06  -7.58882049272914E-25  -7.67835803671863E-06
      2.34307617588552E-15   5.77333333333333E-01   5.77333333333333E-01   0.00000000000000E+00   0.00000000000000E+00
      7.67835803797499E-06   5.38353221758124E-20   7.67835803797504E-06   3.37345449843328E-15   3.00000000000000E+00
      3.00000000000000E+00   0.00000000000000E+00   0.00000000000000E+00   0.00000000000000E+00   0.00000000000000E+00
      0.00000000000000E+00   3.40547217290790E-15
      2.17444444444444E-01
      0.00000000000000E+00   0.00000000000000E+00   0.00000000000000E+00   0.00000000000000E+00   9.79967517341535E-18
     -1.51096198120454E-15  -1.50116230603112E-15  -9.23387122519412E-15   0.00000000000000E+00   0.00000000000000E+00
      0.00000000000000E+00   0.00000000000000E+00  -7.71068660635730E-06  -7.58454901131366E-25  -7.71068660635730E-06
      2.34307581710193E-15   6.52333333333333E-01   6.52333333333333E-01   0.00000000000000E+00   0.00000000000000E+00
      7.71068660785840E-06   5.38421409540968E-20   7.71068660785845E-06   3.49659942826649E-15   3.00000000000000E+00
      3.00000000000000E+00   0.00000000000000E+00   0.00000000000000E+00   0.00000000000000E+00   0.00000000000000E+00
      0.00000000000000E+00   3.39419597982570E-15
      2.42444444444444E-01
      0.00000000000000E+00   0.00000000000000E+00   0.00000000000000E+00   0.00000000000000E+00  -6.55113893213915E-18
     -1.71974896765657E-15  -1.72630010658871E-15  -9.34205973472203E-15   0.00000000000000E+00   0.00000000000000E+00
      0.00000000000000E+00   0.00000000000000E+00  -7.73928255588417E-06  -7.63186990636287E-25  -7.73928255588417E-06
      2.34307549959440E-15   7.27333333333333E-01   7.27333333333333E-01   0.00000000000000E+00   0.00000000000000E+00
      7.73928255761041E-06   5.38509626532338E-20   7.73928255761046E-06   3.61562631429450E-15   3.00000000000000E+00
      3.00000000000000E+00   0.00000000000000E+00   0.00000000000000E+00   0.00000000000000E+00   0.00000000000000E+00
      0.00000000000000E+00   3.38335792083311E-15
      2.67444444444444E-01
      0.00000000000000E+00   0.00000000000000E+00   0.00000000000000E+00   0.00000000000000E+00   6.62224843281093E-20
     -1.84781246909379E-15  -1.84774624660946E-15  -9.44635474202190E-15   0.00000000000000E+00   0.00000000000000E+00
      0.00000000000000E+00   0.00000000000000E+00  -7.76491912430939E-06  -7.67092616157974E-25  -7.76491912430939E-06
      2.34307521482685E-15   8.02333333333333E-01   8.02333333333333E-01   0.00000000000000E+00   0.00000000000000E+00
      7.76491912615708E-06   5.38603873502576E-20   7.76491912615713E-06   3.73032675098678E-15   3.00000000000000E+00
      3.00000000000000E+00   0.00000000000000E+00   0.00000000000000E+00   0.00000000000000E+00   0.00000000000000E+00
      0.00000000000000E+00   3.37295277620827E-15
      2.92444444444444E-01
      0.00000000000000E+00   0.00000000000000E+00   0.00000000000000E+00   0.00000000000000E+00   5.77157718901252E-19
     -1.92278071026783E-15  -1.92220355254893E-15  -9.54723396389811E-15   0.00000000000000E+00   0.00000000000000E+00
      0.00000000000000E+00   0.00000000000000E+00  -7.78783311807486E-06  -7.67797426676055E-25  -7.78783311807486E-06
      2.34307496020621E-15   8.77333333333333E-01   8.77333333333333E-01   0.00000000000000E+00   0.00000000000000E+00
      7.78783311999700E-06   5.38697777787741E-20   7.78783311999706E-06   3.84110674004769E-15   3.00000000000000E+00
      3.00000000000000E+00   0.00000000000000E+00   0.00000000000000E+00   0.00000000000000E+00   0.00000000000000E+00
      0.00000000000000E+00   3.36305226364420E-15
      3.17444444444444E-01
      0.00000000000000E+00   0.00000000000000E+00   0.00000000000000E+00   0.00000000000000E+00  -2.29921491824988E-17
     -1.97306817244927E-15  -1.99606032163177E-15  -9.64581906235818E-15   0.00000000000000E+00   0.00000000000000E+00
      0.00000000000000E+00   0.00000000000000E+00  -7.80803695212077E-06  -7.72562813627847E-25  -7.80803695212077E-06
      2.34307473562640E-15   9.52333333333333E-01   9.52333333333333E-01   0.00000000000000E+00   0.00000000000000E+00
      7.80803695411677E-06   5.38789719353693E-20   7.80803695411682E-06   3.94896659683271E-15   3.00000000000000E+00
      3.00000000000000E+00   0.00000000000000E+00   0.00000000000000E+00   0.00000000000000E+00   0.00000000000000E+00
      0.00000000000000E+00   3.35377772989907E-15
      3.42444444444444E-01
      0.00000000000000E+00   0.00000000000000E+00   0.00000000000000E+00   0.00000000000000E+00   6.81621732826257E-18
     -2.01236082852622E-15  -2.00554461119796E-15  -9.74342031011240E-15   0.00000000000000E+00   0.00000000000000E+00
      0.00000000000000E+00   0.00000000000000E+00  -7.82557795899693E-06  -7.72480420850736E-25  -7.82557795899693E-06
      2.34307454058913E-15   1.02733333333333E+00   1.02733333333333E+00   0.00000000000000E+00   0.00000000000000E+00
      7.82557796100242E-06   5.38880074815185E-20   7.82557796100247E-06   4.05510170952313E-15   3.00000000000000E+00
      3.00000000000000E+00   0.00000000000000E+00   0.00000000000000E+00   0.00000000000000E+00   0.00000000000000E+00
      0.00000000000000E+00   3.34524406000013E-15
      3.67444444444445E-01
      0.00000000000000E+00   0.00000000000000E+00   0.00000000000000E+00   0.00000000000000E+00  -2.11519882905074E-18
     -2.04160293861497E-15  -2.04371813744403E-15  -9.84103415489495E-15   0.00000000000000E+00   0.00000000000000E+00
      0.00000000000000E+00   0.00000000000000E+00  -7.84071727744196E-06  -7.74222072268452E-25  -7.84071727744196E-06
      2.34307437221372E-15   1.10233333333333E+00   1.10233333333333E+00   0.00000000000000E+00   0.00000000000000E+00
      7.84071727948562E-06   5.38969464745411E-20   7.84071727948568E-06   4.16047276643744E-15   3.00000000000000E+00
      3.00000000000000E+00   0.00000000000000E+00   0.00000000000000E+00   0.00000000000000E+00   0.00000000000000E+00
      0.00000000000000E+00   3.33748701624379E-15
      3.92444444444445E-01
      0.00000000000000E+00   0.00000000000000E+00   0.00000000000000E+00   0.00000000000000E+00   9.85679700680814E-18
     -2.06234703896354E-15  -2.05249024195673E-15  -9.93914116559062E-15   0.00000000000000E+00   0.00000000000000E+00
      0.00000000000000E+00   0.00000000000000E+00  -7.85393736103774E-06  -7.72242426505323E-25  -7.85393736103774E-06
      2.34307422515141E-15   1.17733333333333E+00   1.17733333333333E+00   0.00000000000000E+00   0.00000000000000E+00
      7.85393736309017E-06   5.39058424505472E-20   7.85393736309022E-06   4.26564211757420E-15   3.00000000000000E+00
      3.00000000000000E+00   0.00000000000000E+00   0.00000000000000E+00   0.00000000000000E+00   0.00000000000000E+00
      0.00000000000000E+00   3.33042482286501E-15
      4.17444444444445E-01
      0.00000000000000E+00   0.00000000000000E+00   0.00000000000000E+00   0.00000000000000E+00   1.80554894562849E-15
     -2.07876068697873E-15  -2.73211741350244E-16  -1.00377293338219E-14   0.00000000000000E+00   0.00000000000000E+00
      0.00000000000000E+00   0.00000000000000E+00  -7.86581555041852E-06  -7.77061805678710E-25  -7.86581555041852E-06
      2.34307409299100E-15   1.25233333333333E+00   1.25233333333333E+00   0.00000000000000E+00   0.00000000000000E+00
      7.86581555069168E-06   5.39147768995150E-20   7.86581555069173E-06   4.37077434867155E-15   3.00000000000000E+00
      3.00000000000000E+00   0.00000000000000E+00   0.00000000000000E+00   0.00000000000000E+00   0.00000000000000E+00
      0.00000000000000E+00   3.32388089215931E-15
      4.42444444444445E-01
      0.00000000000000E+00   0.00000000000000E+00   0.00000000000000E+00   0.00000000000000E+00   1.61561206609216E-16
     -2.09394439649205E-15  -1.93238318988284E-15  -1.01364547434630E-14   0.00000000000000E+00   0.00000000000000E+00
      0.00000000000000E+00   0.00000000000000E+00  -7.87689490588338E-06  -7.72675496188754E-25  -7.87689490588338E-06
      2.34307396969686E-15   1.32733333333333E+00   1.32733333333333E+00   0.00000000000000E+00   0.00000000000000E+00
      7.87689490781570E-06   5.39240106824070E-20   7.87689490781576E-06   4.47573941645930E-15   3.00000000000000E+00
      3.00000000000000E+00   0.00000000000000E+00   0.00000000000000E+00   0.00000000000000E+00   0.00000000000000E+00
      0.00000000000000E+00   3.31764135730686E-15
      4.67444444444445E-01
      0.00000000000000E+00   0.00000000000000E+00   0.00000000000000E+00   0.00000000000000E+00   2.08934762555867E-17
     -2.10882695265458E-15  -2.08793347639900E-15  -1.02350081806509E-14   0.00000000000000E+00   0.00000000000000E+00
      0.00000000000000E+00   0.00000000000000E+00  -7.88751240671273E-06  -7.76840538724237E-25  -7.88751240671273E-06
      2.34307385152262E-15   1.40233333333333E+00   1.40233333333333E+00   0.00000000000000E+00   0.00000000000000E+00
      7.88751240880060E-06   5.39336221596937E-20   7.88751240880065E-06   4.58037150252549E-15   3.00000000000000E+00
      3.00000000000000E+00   0.00000000000000E+00   0.00000000000000E+00   0.00000000000000E+00   0.00000000000000E+00
      0.00000000000000E+00   3.31156282660274E-15
      4.92444444444445E-01
      0.00000000000000E+00   0.00000000000000E+00   0.00000000000000E+00   0.00000000000000E+00   2.13341120975974E-17
     -2.12387976593469E-15  -2.10254565383709E-15  -1.03332683949521E-14   0.00000000000000E+00   0.00000000000000E+00
      0.00000000000000E+00   0.00000000000000E+00  -7.89777616691024E-06  -7.79399219073384E-25  -7.89777616691024E-06
      2.34307373726718E-15   1.47733333333333E+00   1.47733333333333E+00   0.00000000000000E+00   0.00000000000000E+00
      7.89777616901273E-06   5.39432240275480E-20   7.89777616901279E-06   4.68459010196113E-15   3.00000000000000E+00
      3.00000000000000E+00   0.00000000000000E+00   0.00000000000000E+00   0.00000000000000E+00   0.00000000000000E+00
      0.00000000000000E+00   3.30560455572374E-15
      5.17444444444445E-01
      0.00000000000000E+00   0.00000000000000E+00   0.00000000000000E+00   0.00000000000000E+00   5.82863026201590E-17
     -2.14192042236247E-15  -2.08363411974231E-15  -1.04312077310313E-14   0.00000000000000E+00   0.00000000000000E+00
      0.00000000000000E+00   0.00000000000000E+00  -7.90768977500999E-06  -7.78068356037517E-25  -7.90768977500999E-06
      2.34307362689244E-15   1.55233333333333E+00   1.55233333333333E+00   0.00000000000000E+00   0.00000000000000E+00
      7.90768977709356E-06   5.39525502522645E-20   7.90768977709362E-06   4.78835768597774E-15   3.00000000000000E+00
      3.00000000000000E+00   0.00000000000000E+00   0.00000000000000E+00   0.00000000000000E+00   0.00000000000000E+00
      0.00000000000000E+00   3.29977641816111E-15
      5.42444444444445E-01
      0.00000000000000E+00   0.00000000000000E+00   0.00000000000000E+00   0.00000000000000E+00   1.04921149654495E-16
     -2.16941925909700E-15  -2.06449810944250E-15  -1.05288195168013E-14   0.00000000000000E+00   0.00000000000000E+00
      0.00000000000000E+00   0.00000000000000E+00  -7.91723399181561E-06  -7.80984579468848E-25  -7.91723399181561E-06
      2.34307352061445E-15   1.62733333333333E+00   1.62733333333333E+00   0.00000000000000E+00   0.00000000000000E+00
      7.91723399388005E-06   5.39615509640006E-20   7.91723399388010E-06   4.89164644950221E-15   3.00000000000000E+00
      3.00000000000000E+00   0.00000000000000E+00   0.00000000000000E+00   0.00000000000000E+00   0.00000000000000E+00
      0.00000000000000E+00   3.29409954668458E-15
      5.67444444444445E-01
      0.00000000000000E+00   0.00000000000000E+00   0.00000000000000E+00   0.00000000000000E+00   2.69410462375894E-17
     -2.21663376819704E-15  -2.18969272195945E-15  -1.06260845849650E-14   0.00000000000000E+00   0.00000000000000E+00
      0.00000000000000E+00   0.00000000000000E+00  -7.92641908316487E-06  -7.83435734128755E-25  -7.92641908316487E-06
      2.34307341832066E-15   1.70233333333333E+00   1.70233333333333E+00   0.00000000000000E+00   0.00000000000000E+00
      7.92641908535451E-06   5.39702426559847E-20   7.92641908535456E-06   4.99443381535892E-15   3.00000000000000E+00
      3.00000000000000E+00   0.00000000000000E+00   0.00000000000000E+00   0.00000000000000E+00   0.00000000000000E+00
      0.00000000000000E+00   3.28857735128547E-15
      5.92444444444445E-01
      0.00000000000000E+00   0.00000000000000E+00   0.00000000000000E+00   0.00000000000000E+00   1.06889760837712E-17
     -2.29655497922840E-15  -2.28586600314463E-15  -1.07229573123921E-14   0.00000000000000E+00   0.00000000000000E+00
      0.00000000000000E+00   0.00000000000000E+00  -7.93531148532513E-06  -7.80711291426780E-25  -7.93531148532513E-06
      2.34307331927272E-15   1.77733333333333E+00   1.77733333333333E+00   0.00000000000000E+00   0.00000000000000E+00
      7.93531148761094E-06   5.39786520139891E-20   7.93531148761099E-06   5.09670531224568E-15   3.00000000000000E+00
      3.00000000000000E+00   0.00000000000000E+00   0.00000000000000E+00   0.00000000000000E+00   0.00000000000000E+00
      0.00000000000000E+00   3.28317868087373E-15
      6.17444444444445E-01
      0.00000000000000E+00   0.00000000000000E+00   0.00000000000000E+00   0.00000000000000E+00  -1.36862442409743E-18
     -2.41883853483515E-15  -2.42020715925925E-15  -1.08193727920226E-14   0.00000000000000E+00   0.00000000000000E+00
      0.00000000000000E+00   0.00000000000000E+00  -7.94400471672732E-06  -7.78437787289593E-25  -7.94400471672732E-06
      2.34307322243009E-15   1.85233333333333E+00   1.85233333333333E+00   0.00000000000000E+00   0.00000000000000E+00
      7.94400471914747E-06   5.39868010388061E-20   7.94400471914752E-06   5.19844630186629E-15   3.00000000000000E+00
      3.00000000000000E+00   0.00000000000000E+00   0.00000000000000E+00   0.00000000000000E+00   0.00000000000000E+00
      0.00000000000000E+00   3.27785326772622E-15
      6.42444444444445E-01
      0.00000000000000E+00   0.00000000000000E+00   0.00000000000000E+00   0.00000000000000E+00  -2.90516066818721E-18
     -2.57546039672311E-15  -2.57836555739129E-15  -1.09152576582272E-14   0.00000000000000E+00   0.00000000000000E+00
      0.00000000000000E+00   0.00000000000000E+00  -7.95257127356986E-06  -7.83427081532813E-25  -7.95257127356986E-06
      2.34307312698590E-15   1.92733333333333E+00   1.92733333333333E+00   0.00000000000000E+00   0.00000000000000E+00
      7.95257127614816E-06   5.39947074464501E-20   7.95257127614821E-06   5.29962426405194E-15   3.00000000000000E+00
      3.00000000000000E+00   0.00000000000000E+00   0.00000000000000E+00   0.00000000000000E+00   0.00000000000000E+00
      0.00000000000000E+00   3.27256026718933E-15
      6.67444444444445E-01
      0.00000000000000E+00   0.00000000000000E+00   0.00000000000000E+00   0.00000000000000E+00   5.47926343183656E-18
     -2.73168999965215E-15  -2.72621073622031E-15  -1.10105266399554E-14   0.00000000000000E+00   0.00000000000000E+00
      0.00000000000000E+00   0.00000000000000E+00  -7.96104904279298E-06  -7.83169121454592E-25  -7.96104904279298E-06
      2.34307303251853E-15   2.00233333333333E+00   2.00233333333333E+00   0.00000000000000E+00   0.00000000000000E+00
      7.96104904551913E-06   5.40023845664148E-20   7.96104904551918E-06   5.40017579389834E-15   3.00000000000000E+00
      3.00000000000000E+00   0.00000000000000E+00   0.00000000000000E+00   0.00000000000000E+00   0.00000000000000E+00
      0.00000000000000E+00   3.26727781353848E-15
      6.92444444444445E-01
      0.00000000000000E+00   0.00000000000000E+00   0.00000000000000E+00   0.00000000000000E+00  -6.37277937213217E-18
     -2.84858818555363E-15  -2.85496096492577E-15  -1.11050711600576E-14   0.00000000000000E+00   0.00000000000000E+00
      0.00000000000000E+00   0.00000000000000E+00  -7.96945396037490E-06  -7.86452610968969E-25  -7.96945396037490E-06
      2.34307293885076E-15   2.07733333333333E+00   2.07733333333333E+00   0.00000000000000E+00   0.00000000000000E+00
      7.96945396322980E-06   5.40098413008578E-20   7.96945396322985E-06   5.50000166513036E-15   3.00000000000000E+00
      3.00000000000000E+00   0.00000000000000E+00   0.00000000000000E+00   0.00000000000000E+00   0.00000000000000E+00
      0.00000000000000E+00   3.26199655607652E-15
      7.17444444444445E-01
      0.00000000000000E+00   0.00000000000000E+00   0.00000000000000E+00   0.00000000000000E+00   2.50819344678018E-17
     -2.91758675854371E-15  -2.89250482407591E-15  -1.11987470696073E-14   0.00000000000000E+00   0.00000000000000E+00
      0.00000000000000E+00   0.00000000000000E+00  -7.97779187938144E-06  -7.83883112648402E-25  -7.97779187938144E-06
      2.34307284591810E-15   2.15233333333333E+00   2.15233333333333E+00   0.00000000000000E+00   0.00000000000000E+00
      7.97779188227389E-06   5.40170383564078E-20   7.97779188227395E-06   5.59896122457182E-15   3.00000000000000E+00
      3.00000000000000E+00   0.00000000000000E+00   0.00000000000000E+00   0.00000000000000E+00   0.00000000000000E+00
      0.00000000000000E+00   3.25671299911743E-15
      7.42444444444445E-01
      0.00000000000000E+00   0.00000000000000E+00   0.00000000000000E+00   0.00000000000000E+00  -4.84790927861206E-18
     -2.95509542647284E-15  -2.95994333575145E-15  -1.12913626298441E-14   0.00000000000000E+00   0.00000000000000E+00
      0.00000000000000E+00   0.00000000000000E+00  -7.98606461428777E-06  -7.88331090416098E-25  -7.98606461428777E-06
      2.34307275370013E-15   2.22733333333333E+00   2.22733333333333E+00   0.00000000000000E+00   0.00000000000000E+00
      7.98606461724766E-06   5.40240787638563E-20   7.98606461724771E-06   5.69686383640231E-15   3.00000000000000E+00
      3.00000000000000E+00   0.00000000000000E+00   0.00000000000000E+00   0.00000000000000E+00   0.00000000000000E+00
      0.00000000000000E+00   3.25142603974171E-15
      7.67444444444445E-01
      0.00000000000000E+00   0.00000000000000E+00   0.00000000000000E+00   0.00000000000000E+00   1.45582132479968E-17
     -2.97814766425248E-15  -2.96358945100449E-15  -1.13826713983580E-14   0.00000000000000E+00   0.00000000000000E+00
      0.00000000000000E+00   0.00000000000000E+00  -7.99427248913233E-06  -7.86742203693799E-25  -7.99427248913233E-06
      2.34307266219233E-15   2.30233333333333E+00   2.30233333333333E+00   0.00000000000000E+00   0.00000000000000E+00
      7.99427249209587E-06   5.40309052738286E-20   7.99427249209592E-06   5.79346322565511E-15   3.00000000000000E+00
      3.00000000000000E+00   0.00000000000000E+00   0.00000000000000E+00   0.00000000000000E+00   0.00000000000000E+00
      0.00000000000000E+00   3.24613551051055E-15
      7.92444444444445E-01
      0.00000000000000E+00   0.00000000000000E+00   0.00000000000000E+00   0.00000000000000E+00  -1.54444730694306E-17
     -2.99620735239471E-15  -3.01165182546415E-15  -1.14723811869920E-14   0.00000000000000E+00   0.00000000000000E+00
      0.00000000000000E+00   0.00000000000000E+00  -8.00241538510615E-06  -7.86003810356015E-25  -8.00241538510615E-06
      2.34307257139833E-15   2.37733333333333E+00   2.37733333333333E+00   0.00000000000000E+00   0.00000000000000E+00
      8.00241538811774E-06   5.40374700562281E-20   8.00241538811780E-06   5.88846702921903E-15   3.00000000000000E+00
      3.00000000000000E+00   0.00000000000000E+00   0.00000000000000E+00   0.00000000000000E+00   0.00000000000000E+00
      0.00000000000000E+00   3.24084158637469E-15
      8.17444444444445E-01
      0.00000000000000E+00   0.00000000000000E+00   0.00000000000000E+00   0.00000000000000E+00  -6.79429311891896E-18
     -3.01311242713659E-15  -3.01990672025551E-15  -1.15601970580474E-14   0.00000000000000E+00   0.00000000000000E+00
      0.00000000000000E+00   0.00000000000000E+00  -8.01049316333761E-06  -7.89129797203855E-25  -8.01049316333761E-06
      2.34307248131913E-15   2.45233333333333E+00   2.45233333333333E+00   0.00000000000000E+00   0.00000000000000E+00
      8.01049316635746E-06   5.40437847994685E-20   8.01049316635751E-06   5.98158002692494E-15   3.00000000000000E+00
      3.00000000000000E+00   0.00000000000000E+00   0.00000000000000E+00   0.00000000000000E+00   0.00000000000000E+00
      0.00000000000000E+00   3.23554454980335E-15
      8.42444444444445E-01
      0.00000000000000E+00   0.00000000000000E+00   0.00000000000000E+00   0.00000000000000E+00   5.34277643753550E-18
     -3.02948785834966E-15  -3.02414508191212E-15  -1.16459112176832E-14   0.00000000000000E+00   0.00000000000000E+00
      0.00000000000000E+00   0.00000000000000E+00  -8.01850582915935E-06  -7.89287542424518E-25  -8.01850582915935E-06
      2.34307239195493E-15   2.52733333333333E+00   2.52733333333333E+00   0.00000000000000E+00   0.00000000000000E+00
      8.01850583218344E-06   5.40498379540146E-20   8.01850583218349E-06   6.07259412471078E-15   3.00000000000000E+00
      3.00000000000000E+00   0.00000000000000E+00   0.00000000000000E+00   0.00000000000000E+00   0.00000000000000E+00
      0.00000000000000E+00   3.23024470101754E-15
      8.67444444444445E-01
      0.00000000000000E+00   0.00000000000000E+00   0.00000000000000E+00   0.00000000000000E+00  -1.90594027537841E-18