DF-ISE text

Info {
  version   = 1.0
  type      = xyplot
  datasets  = [
    "time"
    "substrate OuterVoltage" "substrate InnerVoltage" "substrate QuasiFermiPotential" "substrate DisplacementCurrent" "substrate eCurrent"
    "substrate hCurrent" "substrate TotalCurrent" "substrate Charge" "source OuterVoltage" "source InnerVoltage"
    "source QuasiFermiPotential" "source DisplacementCurrent" "source eCurrent" "source hCurrent" "source TotalCurrent"
    "source Charge" "drain OuterVoltage" "drain InnerVoltage" "drain QuasiFermiPotential" "drain DisplacementCurrent"
    "drain eCurrent" "drain hCurrent" "drain TotalCurrent" "drain Charge" "gate OuterVoltage"
    "gate InnerVoltage" "gate QuasiFermiPotential" "gate DisplacementCurrent" "gate eCurrent" "gate hCurrent"
    "gate TotalCurrent" "gate Charge" ]
  functions = [
    Time
    OuterVoltage InnerVoltage QuasiFermiPotential DisplacementCurrent eCurrent
    hCurrent TotalCurrent Charge OuterVoltage InnerVoltage
    QuasiFermiPotential DisplacementCurrent eCurrent hCurrent TotalCurrent
    Charge OuterVoltage InnerVoltage QuasiFermiPotential DisplacementCurrent
    eCurrent hCurrent TotalCurrent Charge OuterVoltage
    InnerVoltage QuasiFermiPotential DisplacementCurrent eCurrent hCurrent
    TotalCurrent Charge ]
}

Data {
      0.00000000000000E+00
      0.00000000000000E+00   0.00000000000000E+00   0.00000000000000E+00   0.00000000000000E+00   4.20597832511386E-22
     -6.09478806381582E-25   4.19988353705005E-22  -4.77569885989357E-15   0.00000000000000E+00   0.00000000000000E+00
      0.00000000000000E+00   0.00000000000000E+00  -2.22232729912686E-22  -4.24665699106435E-24  -2.26479386903750E-22
      2.21058830606949E-15   0.00000000000000E+00   0.00000000000000E+00   0.00000000000000E+00   0.00000000000000E+00
     -1.98365102877849E-22   4.85613607659692E-24  -1.93508966801252E-22   2.21058830606949E-15   0.00000000000000E+00
      0.00000000000000E+00   0.00000000000000E+00   0.00000000000000E+00   0.00000000000000E+00   0.00000000000000E+00
      0.00000000000000E+00   3.54522247754592E-16
      1.00000000000000E-02
      0.00000000000000E+00   0.00000000000000E+00   0.00000000000000E+00   0.00000000000000E+00   4.52020109789820E-19
     -4.44794307356929E-17  -4.40274106259030E-17  -4.82576170422202E-15   0.00000000000000E+00   0.00000000000000E+00
      0.00000000000000E+00   0.00000000000000E+00  -9.35841958216001E-20  -5.14968939298296E-24  -9.35893455109931E-20
      2.21058830606946E-15   3.00000000000000E-02   3.00000000000000E-02   0.00000000000000E+00   0.00000000000000E+00
      4.41000274393329E-17   2.09725320810729E-20   4.41209999714140E-17   2.26281077114547E-15   0.00000000000000E+00
      0.00000000000000E+00   0.00000000000000E+00   0.00000000000000E+00   0.00000000000000E+00   0.00000000000000E+00
      0.00000000000000E+00   3.52362627007079E-16
      2.33333333333333E-02
      0.00000000000000E+00   0.00000000000000E+00   0.00000000000000E+00   0.00000000000000E+00   5.77101134597774E-18
     -8.66770543595487E-17  -8.09060430135709E-17  -4.89205934864108E-15   0.00000000000000E+00   0.00000000000000E+00
      0.00000000000000E+00   0.00000000000000E+00  -1.25743765027789E-19   3.24046314138238E-24  -1.25740524564648E-19
      2.21058830606934E-15   7.00000000000000E-02   7.00000000000000E-02   0.00000000000000E+00   0.00000000000000E+00
      8.11893152790326E-17  -1.57531740896921E-19   8.10317835381357E-17   2.33197661596264E-15   0.00000000000000E+00
      0.00000000000000E+00   0.00000000000000E+00   0.00000000000000E+00   0.00000000000000E+00   0.00000000000000E+00
      0.00000000000000E+00   3.49494426609096E-16
      4.28888888888889E-02
      0.00000000000000E+00   0.00000000000000E+00   0.00000000000000E+00   0.00000000000000E+00  -7.73393881894204E-20
     -1.46958433418615E-16  -1.47035772806804E-16  -4.98844430213772E-15   0.00000000000000E+00   0.00000000000000E+00
      0.00000000000000E+00   0.00000000000000E+00  -1.31094185967235E-19   1.65094585430983E-24  -1.31092535021381E-19
      2.21058830606942E-15   1.28666666666667E-01   1.28666666666667E-01   0.00000000000000E+00   0.00000000000000E+00
      1.47103690021481E-16   6.31753203451956E-20   1.47166865341826E-16   2.43254048612375E-15   0.00000000000000E+00
      0.00000000000000E+00   0.00000000000000E+00   0.00000000000000E+00   0.00000000000000E+00   0.00000000000000E+00
      0.00000000000000E+00   3.45315509944553E-16
      6.78888888888889E-02
      0.00000000000000E+00   0.00000000000000E+00   0.00000000000000E+00   0.00000000000000E+00  -7.73160722153736E-20
     -2.46204632636847E-16  -2.46281948709062E-16  -5.11029143520405E-15   0.00000000000000E+00   0.00000000000000E+00
      0.00000000000000E+00   0.00000000000000E+00  -1.31056713309769E-19  -1.35145752368798E-24  -1.31058064767293E-19
      2.21058830606937E-15   2.03666666666667E-01   2.03666666666667E-01   0.00000000000000E+00   0.00000000000000E+00
      2.46364722681637E-16   4.82840921918570E-20   2.46413006773829E-16   2.55966945440161E-15   0.00000000000000E+00
      0.00000000000000E+00   0.00000000000000E+00   0.00000000000000E+00   0.00000000000000E+00   0.00000000000000E+00
      0.00000000000000E+00   3.40033674733080E-16
      9.28888888888889E-02
      0.00000000000000E+00   0.00000000000000E+00   0.00000000000000E+00   0.00000000000000E+00  -7.75355463716023E-20
     -3.72144872032404E-16  -3.72222407578776E-16  -5.23062129476578E-15   0.00000000000000E+00   0.00000000000000E+00
      0.00000000000000E+00   0.00000000000000E+00  -1.31374590317778E-19  -3.63090768332999E-24  -1.31378221225461E-19
      2.21058830606931E-15   2.78666666666667E-01   2.78666666666667E-01   0.00000000000000E+00   0.00000000000000E+00
      3.72296725377773E-16   5.70604222282320E-20   3.72353785800002E-16   2.68519447453323E-15   0.00000000000000E+00
      0.00000000000000E+00   0.00000000000000E+00   0.00000000000000E+00   0.00000000000000E+00   0.00000000000000E+00
      0.00000000000000E+00   3.34838514163237E-16
      1.17888888888889E-01
      0.00000000000000E+00   0.00000000000000E+00   0.00000000000000E+00   0.00000000000000E+00  -7.78255468287789E-20
     -5.17814529905125E-16  -5.17892355451954E-16  -5.34933924401835E-15   0.00000000000000E+00   0.00000000000000E+00
      0.00000000000000E+00   0.00000000000000E+00  -1.31349734208006E-19   1.36590964245635E-24  -1.31348368298363E-19
      2.21058830606925E-15   3.53666666666667E-01   3.53666666666667E-01   0.00000000000000E+00   0.00000000000000E+00
      5.17972145567309E-16   5.15582529428688E-20   5.18023703820252E-16   2.80900496921116E-15   0.00000000000000E+00
      0.00000000000000E+00   0.00000000000000E+00   0.00000000000000E+00   0.00000000000000E+00   0.00000000000000E+00
      0.00000000000000E+00   3.29745968737945E-16
      1.42888888888889E-01
      0.00000000000000E+00   0.00000000000000E+00   0.00000000000000E+00   0.00000000000000E+00  -7.72552586169865E-20
     -6.79125487182846E-16  -6.79202742441463E-16  -5.46624911378744E-15   0.00000000000000E+00   0.00000000000000E+00
      0.00000000000000E+00   0.00000000000000E+00  -1.31648164126411E-19  -5.44888223363713E-24  -1.31653613008645E-19
      2.21058830606918E-15   4.28666666666667E-01   4.28666666666667E-01   0.00000000000000E+00   0.00000000000000E+00
      6.79286229058389E-16   4.81669960832168E-20   6.79334396054472E-16   2.93090739767444E-15   0.00000000000000E+00
      0.00000000000000E+00   0.00000000000000E+00   0.00000000000000E+00   0.00000000000000E+00   0.00000000000000E+00
      0.00000000000000E+00   3.24753410043812E-16
      1.67888888888889E-01
      0.00000000000000E+00   0.00000000000000E+00   0.00000000000000E+00   0.00000000000000E+00  -7.78270091818591E-20
     -8.67054717837028E-16  -8.67132544846209E-16  -5.58105682415965E-15   0.00000000000000E+00   0.00000000000000E+00
      0.00000000000000E+00   0.00000000000000E+00  -1.31752210195288E-19   3.29963020283110E-24  -1.31748910565086E-19
      2.21058830606910E-15   5.03666666666667E-01   5.03666666666667E-01   0.00000000000000E+00   0.00000000000000E+00
      8.67236093138770E-16   2.82006180030614E-20   8.67264293756773E-16   3.05063531648335E-15   0.00000000000000E+00
      0.00000000000000E+00   0.00000000000000E+00   0.00000000000000E+00   0.00000000000000E+00   0.00000000000000E+00
      0.00000000000000E+00   3.19833201607198E-16
      1.92888888888889E-01
      0.00000000000000E+00   0.00000000000000E+00   0.00000000000000E+00   0.00000000000000E+00  -7.84484029944993E-20
     -1.09617247804526E-15  -1.09625092644825E-15  -5.69333137475217E-15   0.00000000000000E+00   0.00000000000000E+00
      0.00000000000000E+00   0.00000000000000E+00  -1.31935257018808E-19  -7.81934506983877E-24  -1.31943076363878E-19
      2.21058830606900E-15   5.78666666666667E-01   5.78666666666667E-01   0.00000000000000E+00   0.00000000000000E+00
      1.09632829865462E-15   5.45708699937525E-20   1.09638286952461E-15   3.16779418510812E-15   0.00000000000000E+00
      0.00000000000000E+00   0.00000000000000E+00   0.00000000000000E+00   0.00000000000000E+00   0.00000000000000E+00
      0.00000000000000E+00   3.14948883575044E-16
      2.17888888888889E-01
      0.00000000000000E+00   0.00000000000000E+00   0.00000000000000E+00   0.00000000000000E+00  -6.88115610795201E-20
     -1.33476005855280E-15  -1.33482887011388E-15  -5.80249547544646E-15   0.00000000000000E+00   0.00000000000000E+00
      0.00000000000000E+00   0.00000000000000E+00  -1.31993458554342E-19   3.24413508304118E-25  -1.31993134140834E-19
      2.21058830606890E-15   6.53666666666667E-01   6.53666666666667E-01   0.00000000000000E+00   0.00000000000000E+00
      1.33489120391524E-15   6.96593327869288E-20   1.33496086324802E-15   3.28183341251356E-15   0.00000000000000E+00
      0.00000000000000E+00   0.00000000000000E+00   0.00000000000000E+00   0.00000000000000E+00   0.00000000000000E+00
      0.00000000000000E+00   3.10073756864006E-16
      2.42888888888889E-01
      0.00000000000000E+00   0.00000000000000E+00   0.00000000000000E+00   0.00000000000000E+00  -7.78592875797951E-20
     -1.51105703408187E-15  -1.51113489336945E-15  -5.90795623941190E-15   0.00000000000000E+00   0.00000000000000E+00
      0.00000000000000E+00   0.00000000000000E+00  -1.32418904966660E-19   5.28310698199688E-24  -1.32413621859678E-19
      2.21058830606882E-15   7.28666666666667E-01   7.28666666666667E-01   0.00000000000000E+00   0.00000000000000E+00
      1.51121911185977E-15   4.81951315399316E-20   1.51126730699131E-15   3.39217402491165E-15   0.00000000000000E+00
      0.00000000000000E+00   0.00000000000000E+00   0.00000000000000E+00   0.00000000000000E+00   0.00000000000000E+00
      0.00000000000000E+00   3.05193908431425E-16
      2.67888888888889E-01
      0.00000000000000E+00   0.00000000000000E+00   0.00000000000000E+00   0.00000000000000E+00  -7.79624529859125E-20
     -1.61209804116983E-15  -1.61217600362281E-15  -6.00941668333232E-15   0.00000000000000E+00   0.00000000000000E+00
      0.00000000000000E+00   0.00000000000000E+00  -1.32549887931975E-19  -3.47946581617321E-24  -1.32553367397792E-19
      2.21058830606878E-15   8.03666666666667E-01   8.03666666666667E-01   0.00000000000000E+00   0.00000000000000E+00
      1.61226035634799E-15   4.82006422225476E-20   1.61230855699021E-15   3.49852492457506E-15   0.00000000000000E+00
      0.00000000000000E+00   0.00000000000000E+00   0.00000000000000E+00   0.00000000000000E+00   0.00000000000000E+00
      0.00000000000000E+00   3.00303452688478E-16
      2.92888888888889E-01
      0.00000000000000E+00   0.00000000000000E+00   0.00000000000000E+00   0.00000000000000E+00  -7.83158872370933E-20
     -1.67465947402115E-15  -1.67473778990839E-15  -6.10719420784487E-15   0.00000000000000E+00   0.00000000000000E+00
      0.00000000000000E+00   0.00000000000000E+00  -1.32479277371572E-19  -4.96065788407161E-24  -1.32484238029456E-19
      2.21058830606875E-15   8.78666666666667E-01   8.78666666666667E-01   0.00000000000000E+00   0.00000000000000E+00
      1.67482206512868E-15   4.82090177388518E-20   1.67487027414642E-15   3.60120557483692E-15   0.00000000000000E+00
      0.00000000000000E+00   0.00000000000000E+00   0.00000000000000E+00   0.00000000000000E+00   0.00000000000000E+00
      0.00000000000000E+00   2.95400326939198E-16
      3.17888888888889E-01
      0.00000000000000E+00   0.00000000000000E+00   0.00000000000000E+00   0.00000000000000E+00  -7.82441994280194E-20
     -1.72051013335607E-15  -1.72058837755550E-15  -6.20217414209864E-15   0.00000000000000E+00   0.00000000000000E+00
      0.00000000000000E+00   0.00000000000000E+00  -1.32815416964956E-19   4.11459717754376E-24  -1.32811302367778E-19
      2.21058830606872E-15   9.53666666666667E-01   9.53666666666667E-01   0.00000000000000E+00   0.00000000000000E+00
      1.72067297163974E-15   4.82172181215486E-20   1.72072118885786E-15   3.70110180011381E-15   0.00000000000000E+00
      0.00000000000000E+00   0.00000000000000E+00   0.00000000000000E+00   0.00000000000000E+00   0.00000000000000E+00
      0.00000000000000E+00   2.90484035916102E-16
      3.42888888888889E-01
      0.00000000000000E+00   0.00000000000000E+00   0.00000000000000E+00   0.00000000000000E+00  -7.83676257451683E-20
     -1.75268929119900E-15  -1.75276765882474E-15  -6.29535641890303E-15   0.00000000000000E+00   0.00000000000000E+00
      0.00000000000000E+00   0.00000000000000E+00  -1.32933179966493E-19  -1.24688443714804E-23  -1.32945648810865E-19
      2.21058830606871E-15   1.02866666666667E+00   1.02866666666667E+00   0.00000000000000E+00   0.00000000000000E+00
      1.75285237936430E-15   4.82251092506403E-20   1.75290060447355E-15   3.79921348980115E-15   0.00000000000000E+00
      0.00000000000000E+00   0.00000000000000E+00   0.00000000000000E+00   0.00000000000000E+00   0.00000000000000E+00
      0.00000000000000E+00   2.85554623033176E-16
      3.67888888888889E-01
      0.00000000000000E+00   0.00000000000000E+00   0.00000000000000E+00   0.00000000000000E+00  -7.85101720600912E-20
     -1.77499094913835E-15  -1.77506945931041E-15  -6.38746951892071E-15   0.00000000000000E+00   0.00000000000000E+00
      0.00000000000000E+00   0.00000000000000E+00  -1.33026286971970E-19   2.81644090609583E-24  -1.33023470531064E-19
      2.21058830606870E-15   1.10366666666667E+00   1.10366666666667E+00   0.00000000000000E+00   0.00000000000000E+00
      1.77515424946411E-15   4.82333168313223E-20   1.77520248278094E-15   3.89626896846861E-15   0.00000000000000E+00
      0.00000000000000E+00   0.00000000000000E+00   0.00000000000000E+00   0.00000000000000E+00   0.00000000000000E+00
      0.00000000000000E+00   2.80612244383405E-16
      3.92888888888889E-01
      0.00000000000000E+00   0.00000000000000E+00   0.00000000000000E+00   0.00000000000000E+00  -7.83498904677475E-20
     -1.79586919660099E-15  -1.79594754649146E-15  -6.47891808922591E-15   0.00000000000000E+00   0.00000000000000E+00
      0.00000000000000E+00   0.00000000000000E+00  -1.33417871448115E-19   1.45598075183238E-24  -1.33416415467363E-19
      2.21058830606869E-15   1.17866666666667E+00   1.17866666666667E+00   0.00000000000000E+00   0.00000000000000E+00
      1.79603272165138E-15   4.82412555463016E-20   1.79608096290693E-15   3.99267276414686E-15   0.00000000000000E+00
      0.00000000000000E+00   0.00000000000000E+00   0.00000000000000E+00   0.00000000000000E+00   0.00000000000000E+00
      0.00000000000000E+00   2.75657019010357E-16
      4.17888888888889E-01
      0.00000000000000E+00   0.00000000000000E+00   0.00000000000000E+00   0.00000000000000E+00  -7.83735796941191E-20
     -1.81948590898263E-15  -1.81956428256233E-15  -6.56989730451830E-15   0.00000000000000E+00   0.00000000000000E+00
      0.00000000000000E+00   0.00000000000000E+00  -1.33618428349826E-19   7.70388950820382E-24  -1.33610724460318E-19
      2.21058830606868E-15   1.25366666666667E+00   1.25366666666667E+00   0.00000000000000E+00   0.00000000000000E+00
      1.81964964419617E-15   4.82490906129375E-20   1.81969789328679E-15   4.08861999859203E-15   0.00000000000000E+00
      0.00000000000000E+00   0.00000000000000E+00   0.00000000000000E+00   0.00000000000000E+00   0.00000000000000E+00
      0.00000000000000E+00   2.70688999857598E-16
      4.42888888888889E-01
      0.00000000000000E+00   0.00000000000000E+00   0.00000000000000E+00   0.00000000000000E+00  -7.82957055166497E-20
     -1.84378032764125E-15  -1.84385862334677E-15  -6.66049786548956E-15   0.00000000000000E+00   0.00000000000000E+00
      0.00000000000000E+00   0.00000000000000E+00  -1.33912871482857E-19  -3.87489952801588E-24  -1.33916746382385E-19
      2.21058830606866E-15   1.32866666666667E+00   1.32866666666667E+00   0.00000000000000E+00   0.00000000000000E+00
      1.84394428258882E-15   4.82575043269537E-20   1.84399254009315E-15   4.18420136507455E-15   0.00000000000000E+00
      0.00000000000000E+00   0.00000000000000E+00   0.00000000000000E+00   0.00000000000000E+00   0.00000000000000E+00
      0.00000000000000E+00   2.65708194346366E-16
      4.67888888888889E-01
      0.00000000000000E+00   0.00000000000000E+00   0.00000000000000E+00   0.00000000000000E+00  -7.88175120818248E-20
     -1.86764804129906E-15  -1.86772685881114E-15  -6.75076133480304E-15   0.00000000000000E+00   0.00000000000000E+00
      0.00000000000000E+00   0.00000000000000E+00  -1.33590102797428E-19  -6.75268633509393E-25  -1.33590778066061E-19
      2.21058830606817E-15   1.40366666666667E+00   1.40366666666667E+00   0.00000000000000E+00   0.00000000000000E+00
      1.86781262358633E-15   4.78260028769761E-20   1.86786044958921E-15   4.27945842242419E-15   0.00000000000000E+00
      0.00000000000000E+00   0.00000000000000E+00   0.00000000000000E+00   0.00000000000000E+00   0.00000000000000E+00
      0.00000000000000E+00   2.60714606310679E-16
      4.92888888888889E-01
      0.00000000000000E+00   0.00000000000000E+00   0.00000000000000E+00   0.00000000000000E+00  -7.87462105494270E-20
     -1.89263151320759E-15  -1.89271025941814E-15  -6.84070324699288E-15   0.00000000000000E+00   0.00000000000000E+00
      0.00000000000000E+00   0.00000000000000E+00  -1.33848098671316E-19  -7.48233372584602E-24  -1.33855581005042E-19
      2.21058830606818E-15   1.47866666666667E+00   1.47866666666667E+00   0.00000000000000E+00   0.00000000000000E+00
      1.89279602222176E-15   4.80927773869671E-20   1.89284411499915E-15   4.37440664922880E-15   0.00000000000000E+00
      0.00000000000000E+00   0.00000000000000E+00   0.00000000000000E+00   0.00000000000000E+00   0.00000000000000E+00
      0.00000000000000E+00   2.55708291695919E-16
      5.17888888888889E-01
      0.00000000000000E+00   0.00000000000000E+00   0.00000000000000E+00   0.00000000000000E+00  -7.85551800202564E-20
     -1.91932881542885E-15  -1.91940737060887E-15  -6.93032345667645E-15   0.00000000000000E+00   0.00000000000000E+00
      0.00000000000000E+00   0.00000000000000E+00  -1.34080804143263E-19  -3.08060450859926E-24  -1.34083884747771E-19
      2.21058830606823E-15   1.55366666666667E+00   1.55366666666667E+00   0.00000000000000E+00   0.00000000000000E+00
      1.91949318561805E-15   4.82688755688979E-20   1.91954145449361E-15   4.46904573025028E-15   0.00000000000000E+00
      0.00000000000000E+00   0.00000000000000E+00   0.00000000000000E+00   0.00000000000000E+00   0.00000000000000E+00
      0.00000000000000E+00   2.50689420357950E-16
      5.42888888888889E-01
      0.00000000000000E+00   0.00000000000000E+00   0.00000000000000E+00   0.00000000000000E+00  -7.84840416197788E-20
     -1.94903377076356E-15  -1.94911225480518E-15  -7.01961188242276E-15   0.00000000000000E+00   0.00000000000000E+00
      0.00000000000000E+00   0.00000000000000E+00  -1.34068638166933E-19  -6.91175819355067E-24  -1.34075549925127E-19
      2.21058830606836E-15   1.62866666666667E+00   1.62866666666667E+00   0.00000000000000E+00   0.00000000000000E+00
      1.94919806087029E-15   4.82694848183788E-20   1.94924633035510E-15   4.56336525402643E-15   0.00000000000000E+00
      0.00000000000000E+00   0.00000000000000E+00   0.00000000000000E+00   0.00000000000000E+00   0.00000000000000E+00
      0.00000000000000E+00   2.45658322327966E-16
      5.67888888888889E-01
      0.00000000000000E+00   0.00000000000000E+00   0.00000000000000E+00   0.00000000000000E+00  -7.87441910218270E-20
     -1.98881895800340E-15  -1.98889770219442E-15  -7.10855082000525E-15   0.00000000000000E+00   0.00000000000000E+00
      0.00000000000000E+00   0.00000000000000E+00  -1.34242031225398E-19   2.41363428742516E-24  -1.34239617591111E-19
      2.21058830606849E-15   1.70366666666667E+00   1.70366666666667E+00   0.00000000000000E+00   0.00000000000000E+00
      1.98898369389828E-15   4.82479137300835E-20   1.98903194181201E-15   4.65734702306245E-15   0.00000000000000E+00
      0.00000000000000E+00   0.00000000000000E+00   0.00000000000000E+00   0.00000000000000E+00   0.00000000000000E+00
      0.00000000000000E+00   2.40615490874305E-16
      5.92888888888889E-01
      0.00000000000000E+00   0.00000000000000E+00   0.00000000000000E+00   0.00000000000000E+00  -7.87423160656461E-20
     -2.05367517782334E-15  -2.05375392013940E-15  -7.19711397041054E-15   0.00000000000000E+00   0.00000000000000E+00
      0.00000000000000E+00   0.00000000000000E+00  -1.34631357962861E-19  -9.51176972080583E-24  -1.34640869732582E-19
      2.21058830606854E-15   1.77866666666667E+00   1.77866666666667E+00   0.00000000000000E+00   0.00000000000000E+00
      2.05384029070714E-15   4.82703019909503E-20   2.05388856100914E-15   4.75096413038293E-15   0.00000000000000E+00
      0.00000000000000E+00   0.00000000000000E+00   0.00000000000000E+00   0.00000000000000E+00   0.00000000000000E+00
      0.00000000000000E+00   2.35561533959069E-16
      6.17888888888889E-01
      0.00000000000000E+00   0.00000000000000E+00   0.00000000000000E+00   0.00000000000000E+00  -7.89128231475797E-20
     -2.15894143339532E-15  -2.15902034621847E-15  -7.28526336099149E-15   0.00000000000000E+00   0.00000000000000E+00
      0.00000000000000E+00   0.00000000000000E+00  -1.34642018010330E-19   6.74541814115125E-24  -1.34635272592189E-19
      2.21058830606853E-15   1.85366666666667E+00   1.85366666666667E+00   0.00000000000000E+00   0.00000000000000E+00
      2.15910667642526E-15   4.83050658058198E-20   2.15915498149106E-15   4.84417795800774E-15   0.00000000000000E+00
      0.00000000000000E+00   0.00000000000000E+00   0.00000000000000E+00   0.00000000000000E+00   0.00000000000000E+00
      0.00000000000000E+00   2.30497096915221E-16
      6.42888888888889E-01
      0.00000000000000E+00   0.00000000000000E+00   0.00000000000000E+00   0.00000000000000E+00  -7.89854821686633E-20
     -2.30079657556687E-15  -2.30087556104903E-15  -7.37294555438192E-15   0.00000000000000E+00   0.00000000000000E+00
      0.00000000000000E+00   0.00000000000000E+00  -1.34626035371414E-19   9.87965806170170E-24  -1.34616155713352E-19
      2.21058830606848E-15   1.92866666666667E+00   1.92866666666667E+00   0.00000000000000E+00   0.00000000000000E+00
      2.30096186418592E-15   4.83130188277505E-20   2.30101017720475E-15   4.93693445689851E-15   0.00000000000000E+00
      0.00000000000000E+00   0.00000000000000E+00   0.00000000000000E+00   0.00000000000000E+00   0.00000000000000E+00
      0.00000000000000E+00   2.25422791414920E-16
      6.67888888888889E-01
      0.00000000000000E+00   0.00000000000000E+00   0.00000000000000E+00   0.00000000000000E+00  -7.82409990499850E-20
     -2.44554144348002E-15  -2.44561968447907E-15  -7.46008764579547E-15   0.00000000000000E+00   0.00000000000000E+00
      0.00000000000000E+00   0.00000000000000E+00  -1.34934062376850E-19  -1.01382515258555E-24  -1.34935076202003E-19
      2.21058830606843E-15   2.00366666666667E+00   2.00366666666667E+00   0.00000000000000E+00   0.00000000000000E+00
      2.44570629380579E-15   4.83257494736471E-20   2.44575461955526E-15   5.02916018738674E-15   0.00000000000000E+00
      0.00000000000000E+00   0.00000000000000E+00   0.00000000000000E+00   0.00000000000000E+00   0.00000000000000E+00
      0.00000000000000E+00   2.20339152340296E-16
      6.92888888888889E-01
      0.00000000000000E+00   0.00000000000000E+00   0.00000000000000E+00   0.00000000000000E+00  -7.77843516219414E-20
     -2.55523412948665E-15  -2.55531191383827E-15  -7.54659253264334E-15   0.00000000000000E+00   0.00000000000000E+00
      0.00000000000000E+00   0.00000000000000E+00  -1.34910183127018E-19   6.85434341133074E-24  -1.34903328783607E-19
      2.21058830606846E-15   2.07866666666667E+00   2.07866666666667E+00   0.00000000000000E+00   0.00000000000000E+00
      2.55539848457223E-15   4.83325948236830E-20   2.55544681716706E-15   5.12075760227759E-15   0.00000000000000E+00
      0.00000000000000E+00   0.00000000000000E+00   0.00000000000000E+00   0.00000000000000E+00   0.00000000000000E+00
      0.00000000000000E+00   2.15246624297282E-16
      7.17888888888889E-01
      0.00000000000000E+00   0.00000000000000E+00   0.00000000000000E+00   0.00000000000000E+00  -7.84425605166590E-20
     -2.62042776600338E-15  -2.62050620856390E-15  -7.63233248916685E-15   0.00000000000000E+00   0.00000000000000E+00
      0.00000000000000E+00   0.00000000000000E+00  -1.34962254141456E-19   9.17416641660330E-25  -1.34961336724814E-19
      2.21058830606863E-15   2.15366666666667E+00   2.15366666666667E+00   0.00000000000000E+00   0.00000000000000E+00
      2.62059283327085E-15   4.83366297699693E-20   2.62064116990062E-15   5.21159861555217E-15   0.00000000000000E+00
      0.00000000000000E+00   0.00000000000000E+00   0.00000000000000E+00   0.00000000000000E+00   0.00000000000000E+00
      0.00000000000000E+00   2.10145567546046E-16
      7.42888888888889E-01
      0.00000000000000E+00   0.00000000000000E+00   0.00000000000000E+00   0.00000000000000E+00  -7.89863563888421E-20
     -2.65396833309643E-15  -2.65404731945282E-15  -7.71714075123652E-15   0.00000000000000E+00   0.00000000000000E+00
      0.00000000000000E+00   0.00000000000000E+00  -1.35330833237451E-19   3.68920698177921E-24  -1.35327144030469E-19
      2.21058830606900E-15   2.22866666666667E+00   2.22866666666667E+00   0.00000000000000E+00   0.00000000000000E+00
      2.65413430957068E-15   4.83370261702295E-20   2.65418264659685E-15   5.30151617483195E-15   0.00000000000000E+00
      0.00000000000000E+00   0.00000000000000E+00   0.00000000000000E+00   0.00000000000000E+00   0.00000000000000E+00
      0.00000000000000E+00   2.05036270335560E-16
      7.67888888888889E-01
      0.00000000000000E+00   0.00000000000000E+00   0.00000000000000E+00   0.00000000000000E+00  -7.93921870328661E-20
     -2.67076795386343E-15  -2.67084734605046E-15  -7.80080377109072E-15   0.00000000000000E+00   0.00000000000000E+00
      0.00000000000000E+00   0.00000000000000E+00  -1.35465070406679E-19   4.53855946467208E-24  -1.35460531847215E-19
      2.21058830606830E-15   2.30366666666667E+00   2.30366666666667E+00   0.00000000000000E+00   0.00000000000000E+00
      2.67093445458266E-15   4.83519996487773E-20   2.67098280658231E-15   5.39029650617087E-15   0.00000000000000E+00
      0.00000000000000E+00   0.00000000000000E+00   0.00000000000000E+00   0.00000000000000E+00   0.00000000000000E+00
      0.00000000000000E+00   1.99918958851547E-16
      7.92888888888889E-01
      0.00000000000000E+00   0.00000000000000E+00   0.00000000000000E+00   0.00000000000000E+00  -7.95125016389536E-20
     -2.68035858789636E-15  -2.68043810039800E-15  -7.88306341492464E-15   0.00000000000000E+00   0.00000000000000E+00
      0.00000000000000E+00   0.00000000000000E+00  -1.35557390394691E-19   4.84266500309380E-24  -1.35552547729688E-19
      2.21058830606829E-15   2.37866666666667E+00   2.37866666666667E+00   0.00000000000000E+00   0.00000000000000E+00
      2.68052529518658E-15   4.83577591537054E-20   2.68057365294573E-15   5.47768130523551E-15   0.00000000000000E+00
      0.00000000000000E+00   0.00000000000000E+00   0.00000000000000E+00   0.00000000000000E+00   0.00000000000000E+00
      0.00000000000000E+00   1.94793803620839E-16
      8.17888888888889E-01
      0.00000000000000E+00   0.00000000000000E+00   0.00000000000000E+00   0.00000000000000E+00  -7.97175527876487E-20
     -2.68772366673117E-15  -2.68780338428396E-15  -7.96364780170413E-15   0.00000000000000E+00   0.00000000000000E+00
      0.00000000000000E+00   0.00000000000000E+00  -1.35564391503221E-19  -2.72903140140905E-24  -1.35567120534623E-19
      2.21058830606829E-15   2.45366666666667E+00   2.45366666666667E+00   0.00000000000000E+00   0.00000000000000E+00
      2.68789058811052E-15   4.83632939744335E-20   2.68793895140450E-15   5.56339856953208E-15   0.00000000000000E+00
      0.00000000000000E+00   0.00000000000000E+00   0.00000000000000E+00   0.00000000000000E+00   0.00000000000000E+00
      0.00000000000000E+00   1.89660926103767E-16
      8.42888888888889E-01
      0.00000000000000E+00   0.00000000000000E+00   0.00000000000000E+00   0.00000000000000E+00  -7.95989223213841E-20
     -2.69541871874561E-15  -2.69549831766793E-15  -8.04235076807185E-15   0.00000000000000E+00   0.00000000000000E+00
      0.00000000000000E+00   0.00000000000000E+00  -1.35894028671377E-19   7.62669670894670E-24  -1.35886401974668E-19
      2.21058830606829E-15   2.52866666666667E+00   2.52866666666667E+00   0.00000000000000E+00   0.00000000000000E+00
      2.69558583547505E-15   4.83685948490273E-20   2.69563420406990E-15   5.64724205366002E-15   0.00000000000000E+00
      0.00000000000000E+00   0.00000000000000E+00   0.00000000000000E+00   0.00000000000000E+00   0.00000000000000E+00
      0.00000000000000E+00   1.84520408343544E-16
      8.67888888888889E-01
      0.00000000000000E+00   0.00000000000000E+00   0.00000000000000E+00   0.00000000000000E+00  -7.96338989005722E-20