DF-ISE text

Info {
  version   = 1.0
  type      = xyplot
  datasets  = [
    "time"
    "substrate OuterVoltage" "substrate InnerVoltage" "substrate QuasiFermiPotential" "substrate DisplacementCurrent" "substrate eCurrent"
    "substrate hCurrent" "substrate TotalCurrent" "substrate Charge" "source OuterVoltage" "source InnerVoltage"
    "source QuasiFermiPotential" "source DisplacementCurrent" "source eCurrent" "source hCurrent" "source TotalCurrent"
    "source Charge" "drain OuterVoltage" "drain InnerVoltage" "drain QuasiFermiPotential" "drain DisplacementCurrent"
    "drain eCurrent" "drain hCurrent" "drain TotalCurrent" "drain Charge" "gate OuterVoltage"
    "gate InnerVoltage" "gate QuasiFermiPotential" "gate DisplacementCurrent" "gate eCurrent" "gate hCurrent"
    "gate TotalCurrent" "gate Charge" ]
  functions = [
    Time
    OuterVoltage InnerVoltage QuasiFermiPotential DisplacementCurrent eCurrent
    hCurrent TotalCurrent Charge OuterVoltage InnerVoltage
    QuasiFermiPotential DisplacementCurrent eCurrent hCurrent TotalCurrent
    Charge OuterVoltage InnerVoltage QuasiFermiPotential DisplacementCurrent
    eCurrent hCurrent TotalCurrent Charge OuterVoltage
    InnerVoltage QuasiFermiPotential DisplacementCurrent eCurrent hCurrent
    TotalCurrent Charge ]
}

Data {
      0.00000000000000E+00
      0.00000000000000E+00   0.00000000000000E+00   0.00000000000000E+00   0.00000000000000E+00   3.32399724371701E-19
      3.83257016024188E-24   3.32403556941861E-19  -3.67878159646828E-15   0.00000000000000E+00   0.00000000000000E+00
      0.00000000000000E+00   0.00000000000000E+00   5.54306097324662E-20  -2.14785585364494E-24   5.54284618766126E-20
      1.72036803001003E-15   0.00000000000000E+00   0.00000000000000E+00   0.00000000000000E+00   0.00000000000000E+00
     -3.87830334104311E-19  -1.68471416310395E-24  -3.87832018818474E-19   1.72036803001003E-15   0.00000000000000E+00
      0.00000000000000E+00   0.00000000000000E+00   0.00000000000000E+00   0.00000000000000E+00   0.00000000000000E+00
      0.00000000000000E+00   2.38045536448219E-16
      1.00000000000000E-02
      0.00000000000000E+00   0.00000000000000E+00   0.00000000000000E+00   0.00000000000000E+00   5.55728082764453E-18
     -2.97778494249697E-17  -2.42205685973252E-17  -3.71753988162915E-15   0.00000000000000E+00   0.00000000000000E+00
      0.00000000000000E+00   0.00000000000000E+00  -1.14475766715505E-19   3.86535981761294E-25  -1.14475380179523E-19
      1.72036803001001E-15   3.00000000000000E-02   3.00000000000000E-02   0.00000000000000E+00   0.00000000000000E+00
      2.43145188770070E-17   2.05251004976291E-20   2.43350439775047E-17   1.76155058509628E-15   0.00000000000000E+00
      0.00000000000000E+00   0.00000000000000E+00   0.00000000000000E+00   0.00000000000000E+00   0.00000000000000E+00
      0.00000000000000E+00   2.35621266522859E-16
      2.33333333333333E-02
      0.00000000000000E+00   0.00000000000000E+00   0.00000000000000E+00   0.00000000000000E+00   8.29171169025431E-15
     -5.50358918615969E-17   8.23667579839271E-15  -3.76888528544666E-15   0.00000000000000E+00   0.00000000000000E+00
      0.00000000000000E+00   0.00000000000000E+00  -5.95852288839176E-19   7.97882305327544E-25  -5.95851490956871E-19
      1.72036803001004E-15   7.00000000000000E-02   7.00000000000000E-02   0.00000000000000E+00   0.00000000000000E+00
     -8.23598033313969E-15  -9.96137620595460E-20  -8.23607994690175E-15   1.81610873565848E-15   0.00000000000000E+00
      0.00000000000000E+00   0.00000000000000E+00   0.00000000000000E+00   0.00000000000000E+00   0.00000000000000E+00
      0.00000000000000E+00   2.32408519778135E-16
      4.28888888888889E-02
      0.00000000000000E+00   0.00000000000000E+00   0.00000000000000E+00   0.00000000000000E+00   4.18260932325132E-19
     -8.56733710403908E-17  -8.52551101080657E-17  -3.84354693633318E-15   0.00000000000000E+00   0.00000000000000E+00
      0.00000000000000E+00   0.00000000000000E+00  -6.02032956316295E-19   3.14260666897881E-25  -6.02032642055628E-19
      1.72036803000998E-15   1.28666666666667E-01   1.28666666666667E-01   0.00000000000000E+00   0.00000000000000E+00
      8.58113531076050E-17   4.57896425163622E-20   8.58571427501213E-17   1.89544466735549E-15   0.00000000000000E+00
      0.00000000000000E+00   0.00000000000000E+00   0.00000000000000E+00   0.00000000000000E+00   0.00000000000000E+00
      0.00000000000000E+00   2.27734238967708E-16
      6.78888888888889E-02
      0.00000000000000E+00   0.00000000000000E+00   0.00000000000000E+00   0.00000000000000E+00  -9.40059898414390E-20
     -1.37022584960132E-16  -1.37116590949973E-16  -3.93792215801750E-15   0.00000000000000E+00   0.00000000000000E+00
      0.00000000000000E+00   0.00000000000000E+00  -1.58761203544984E-19  -5.84641568668289E-25  -1.58761788186552E-19
      1.72036803000995E-15   2.03666666666667E-01   2.03666666666667E-01   0.00000000000000E+00   0.00000000000000E+00
      1.37238015255338E-16   3.73374828216747E-20   1.37275352738160E-16   1.99574374952447E-15   0.00000000000000E+00
      0.00000000000000E+00   0.00000000000000E+00   0.00000000000000E+00   0.00000000000000E+00   0.00000000000000E+00
      0.00000000000000E+00   2.21810378483074E-16
      9.28888888888889E-02
      0.00000000000000E+00   0.00000000000000E+00   0.00000000000000E+00   0.00000000000000E+00  -6.14557075740843E-20
     -2.12324688475738E-16  -2.12386144183312E-16  -4.03108255865944E-15   0.00000000000000E+00   0.00000000000000E+00
      0.00000000000000E+00   0.00000000000000E+00  -1.59383734406467E-19  -1.35067099258513E-24  -1.59385085077460E-19
      1.72036803000991E-15   2.78666666666667E-01   2.78666666666667E-01   0.00000000000000E+00   0.00000000000000E+00
      2.12508002433021E-16   3.75268353688927E-20   2.12545529268389E-16   2.09479391862222E-15   0.00000000000000E+00
      0.00000000000000E+00   0.00000000000000E+00   0.00000000000000E+00   0.00000000000000E+00   0.00000000000000E+00
      0.00000000000000E+00   2.15920610027303E-16
      1.17888888888889E-01
      0.00000000000000E+00   0.00000000000000E+00   0.00000000000000E+00   0.00000000000000E+00  -6.21821643288175E-20
     -3.12048392886469E-16  -3.12110575050797E-16  -4.12294027725037E-15   0.00000000000000E+00   0.00000000000000E+00
      0.00000000000000E+00   0.00000000000000E+00  -1.59319758961334E-19   2.42002454549699E-25  -1.59319516958880E-19
      1.72036803000986E-15   3.53666666666667E-01   3.53666666666667E-01   0.00000000000000E+00   0.00000000000000E+00
      3.12233783447110E-16   3.61111206466767E-20   3.12269894567756E-16   2.19253050279003E-15   0.00000000000000E+00
      0.00000000000000E+00   0.00000000000000E+00   0.00000000000000E+00   0.00000000000000E+00   0.00000000000000E+00
      0.00000000000000E+00   2.10041744450468E-16
      1.42888888888889E-01
      0.00000000000000E+00   0.00000000000000E+00   0.00000000000000E+00   0.00000000000000E+00  -4.45261306616452E-22
     -4.48832189221336E-16  -4.48832634482643E-16  -4.21334194587899E-15   0.00000000000000E+00   0.00000000000000E+00
      0.00000000000000E+00   0.00000000000000E+00  -2.14958944638246E-19  -2.89371206697649E-24  -2.14961838350313E-19
      1.72036803000979E-15   4.28666666666667E-01   4.28666666666667E-01   0.00000000000000E+00   0.00000000000000E+00
      4.49010833239086E-16   3.67630819075705E-20   4.49047596320993E-16   2.28881524757299E-15   0.00000000000000E+00
      0.00000000000000E+00   0.00000000000000E+00   0.00000000000000E+00   0.00000000000000E+00   0.00000000000000E+00
      0.00000000000000E+00   2.04158668296208E-16
      1.67888888888889E-01
      0.00000000000000E+00   0.00000000000000E+00   0.00000000000000E+00   0.00000000000000E+00  -1.11825310233631E-19
     -6.37498295403037E-16  -6.37610120713271E-16  -4.30206531206889E-15   0.00000000000000E+00   0.00000000000000E+00
      0.00000000000000E+00   0.00000000000000E+00  -1.04636421150452E-19   1.97651099674036E-25  -1.04636223499352E-19
      1.72036803000969E-15   5.03666666666667E-01   5.03666666666667E-01   0.00000000000000E+00   0.00000000000000E+00
      6.37677995014743E-16   3.67619220265513E-20   6.37714756936769E-16   2.38343389756131E-15   0.00000000000000E+00
      0.00000000000000E+00   0.00000000000000E+00   0.00000000000000E+00   0.00000000000000E+00   0.00000000000000E+00
      0.00000000000000E+00   1.98263384497882E-16
      1.92888888888889E-01
      0.00000000000000E+00   0.00000000000000E+00   0.00000000000000E+00   0.00000000000000E+00   1.07130317645106E-19
     -8.66123403946042E-16  -8.66016273628397E-16  -4.38878762816368E-15   0.00000000000000E+00   0.00000000000000E+00
      0.00000000000000E+00   0.00000000000000E+00  -3.26445451564116E-19  -1.07201739778740E-24  -3.26446523581514E-19
      1.72036803000958E-15   5.78666666666667E-01   5.78666666666667E-01   0.00000000000000E+00   0.00000000000000E+00
      8.66305961303926E-16   3.67588480521216E-20   8.66342720151978E-16   2.47606736016454E-15   0.00000000000000E+00
      0.00000000000000E+00   0.00000000000000E+00   0.00000000000000E+00   0.00000000000000E+00   0.00000000000000E+00
      0.00000000000000E+00   1.92352237989565E-16
      2.17888888888889E-01
      0.00000000000000E+00   0.00000000000000E+00   0.00000000000000E+00   0.00000000000000E+00   1.07953225322775E-19
     -1.06600769499705E-15  -1.06589974177173E-15  -4.47308457131729E-15   0.00000000000000E+00   0.00000000000000E+00
      0.00000000000000E+00   0.00000000000000E+00  -3.26788292376308E-19   6.99481231928792E-25  -3.26787592895076E-19
      1.72036803000947E-15   6.53666666666667E-01   6.53666666666667E-01   0.00000000000000E+00   0.00000000000000E+00
      1.06618976860354E-15   3.67607610819666E-20   1.06622652936462E-15   2.56629272895490E-15   0.00000000000000E+00
      0.00000000000000E+00   0.00000000000000E+00   0.00000000000000E+00   0.00000000000000E+00   0.00000000000000E+00
      0.00000000000000E+00   1.86423812352925E-16
      2.42888888888889E-01
      0.00000000000000E+00   0.00000000000000E+00   0.00000000000000E+00   0.00000000000000E+00  -3.35649366128008E-19
     -1.18737242758549E-15  -1.18770807695162E-15  -4.55455170318614E-15   0.00000000000000E+00   0.00000000000000E+00
      0.00000000000000E+00   0.00000000000000E+00   1.16245953920592E-19  -8.32258708185889E-25   1.16245121661883E-19
      1.72036803000941E-15   7.28666666666667E-01   7.28666666666667E-01   0.00000000000000E+00   0.00000000000000E+00
      1.18755506611587E-15   3.67657140833326E-20   1.18759183182995E-15   2.65370591665960E-15   0.00000000000000E+00
      0.00000000000000E+00   0.00000000000000E+00   0.00000000000000E+00   0.00000000000000E+00   0.00000000000000E+00
      0.00000000000000E+00   1.80477756517135E-16
      2.67888888888889E-01
      0.00000000000000E+00   0.00000000000000E+00   0.00000000000000E+00   0.00000000000000E+00  -3.35827703398496E-19
     -1.25519422071363E-15  -1.25553004841703E-15  -4.63307390921636E-15   0.00000000000000E+00   0.00000000000000E+00
      0.00000000000000E+00   0.00000000000000E+00   1.15947653593908E-19   1.38410242306383E-24   1.15949037696331E-19
      1.72036803000938E-15   8.03666666666667E-01   8.03666666666667E-01   0.00000000000000E+00   0.00000000000000E+00
      1.25537732760037E-15   3.67717789664173E-20   1.25541409937934E-15   2.73819165931776E-15   0.00000000000000E+00
      0.00000000000000E+00   0.00000000000000E+00   0.00000000000000E+00   0.00000000000000E+00   0.00000000000000E+00
      0.00000000000000E+00   1.74514219889225E-16
      2.92888888888889E-01
      0.00000000000000E+00   0.00000000000000E+00   0.00000000000000E+00   0.00000000000000E+00  -3.35548303051886E-19
     -1.29840848603571E-15  -1.29874403433876E-15  -4.70902822896185E-15   0.00000000000000E+00   0.00000000000000E+00
      0.00000000000000E+00   0.00000000000000E+00   1.15544516256770E-19  -8.90880380932706E-25   1.15543625376389E-19
      1.72036803000935E-15   8.78666666666667E-01   8.78666666666667E-01   0.00000000000000E+00   0.00000000000000E+00
      1.29859171346691E-15   3.67772464779165E-20   1.29862849071339E-15   2.82012659502438E-15   0.00000000000000E+00
      0.00000000000000E+00   0.00000000000000E+00   0.00000000000000E+00   0.00000000000000E+00   0.00000000000000E+00
      0.00000000000000E+00   1.68533603928113E-16
      3.17888888888889E-01
      0.00000000000000E+00   0.00000000000000E+00   0.00000000000000E+00   0.00000000000000E+00   1.62790165922321E-19
     -1.32738732775167E-15  -1.32722453758575E-15  -4.78311851453248E-15   0.00000000000000E+00   0.00000000000000E+00
      0.00000000000000E+00   0.00000000000000E+00  -3.83343103982277E-19   9.09953023123399E-25  -3.83342194029254E-19
      1.72036803000934E-15   9.53666666666667E-01   9.53666666666667E-01   0.00000000000000E+00   0.00000000000000E+00
      1.32757109570717E-15   3.67840726095131E-20   1.32760787977978E-15   2.90021402823244E-15   0.00000000000000E+00
      0.00000000000000E+00   0.00000000000000E+00   0.00000000000000E+00   0.00000000000000E+00   0.00000000000000E+00
      0.00000000000000E+00   1.62536456290692E-16
      3.42888888888889E-01
      0.00000000000000E+00   0.00000000000000E+00   0.00000000000000E+00   0.00000000000000E+00   1.62597784023284E-19
     -1.35002634827882E-15  -1.34986375049479E-15  -4.85600562064326E-15   0.00000000000000E+00   0.00000000000000E+00
      0.00000000000000E+00   0.00000000000000E+00  -3.83530316421120E-19   2.21357179068043E-24  -3.83528102849329E-19
      1.72036803000932E-15   1.02866666666667E+00   1.02866666666667E+00   0.00000000000000E+00   0.00000000000000E+00
      1.35021048751044E-15   3.67910872030844E-20   1.35024727859764E-15   2.97911417223163E-15   0.00000000000000E+00
      0.00000000000000E+00   0.00000000000000E+00   0.00000000000000E+00   0.00000000000000E+00   0.00000000000000E+00
      0.00000000000000E+00   1.56523418402293E-16
      3.67888888888889E-01
      0.00000000000000E+00   0.00000000000000E+00   0.00000000000000E+00   0.00000000000000E+00  -2.80614305216081E-19
     -1.36959869707571E-15  -1.36987931138092E-15  -4.92812476881974E-15   0.00000000000000E+00   0.00000000000000E+00
      0.00000000000000E+00   0.00000000000000E+00   5.93048640742553E-20   1.49329271087008E-24   5.93063573669662E-20
      1.72036803000931E-15   1.10366666666667E+00   1.10366666666667E+00   0.00000000000000E+00   0.00000000000000E+00
      1.36978320756713E-15   3.67974564239871E-20   1.36982000502356E-15   3.05726155384842E-15   0.00000000000000E+00
      0.00000000000000E+00   0.00000000000000E+00   0.00000000000000E+00   0.00000000000000E+00   0.00000000000000E+00
      0.00000000000000E+00   1.50495184961995E-16
      3.92888888888889E-01
      0.00000000000000E+00   0.00000000000000E+00   0.00000000000000E+00   0.00000000000000E+00  -2.80871681020732E-19
     -1.38614199540667E-15  -1.38642286708769E-15  -4.99971189986294E-15   0.00000000000000E+00   0.00000000000000E+00
      0.00000000000000E+00   0.00000000000000E+00   5.91922183536781E-20   1.00618933463397E-24   5.91932245430128E-20
      1.72036803000930E-15   1.17866666666667E+00   1.17866666666667E+00   0.00000000000000E+00   0.00000000000000E+00
      1.38632687003882E-15   3.68038243293515E-20   1.38636367386315E-15   3.13489140935741E-15   0.00000000000000E+00
      0.00000000000000E+00   0.00000000000000E+00   0.00000000000000E+00   0.00000000000000E+00   0.00000000000000E+00
      0.00000000000000E+00   1.44452460496221E-16
      4.17888888888889E-01
      0.00000000000000E+00   0.00000000000000E+00   0.00000000000000E+00   0.00000000000000E+00  -2.42446545149419E-21
     -1.40150656463192E-15  -1.40150898909737E-15  -5.07088029431895E-15   0.00000000000000E+00   0.00000000000000E+00
      0.00000000000000E+00   0.00000000000000E+00  -2.18368653998739E-19  -2.72675206163333E-24  -2.18371380750801E-19
      1.72036803000878E-15   1.25366666666667E+00   1.25366666666667E+00   0.00000000000000E+00   0.00000000000000E+00
      1.40169258697310E-15   3.47735050146252E-20   1.40172736047812E-15   3.21211634974419E-15   0.00000000000000E+00
      0.00000000000000E+00   0.00000000000000E+00   0.00000000000000E+00   0.00000000000000E+00   0.00000000000000E+00
      0.00000000000000E+00   1.38395914565976E-16
      4.42888888888889E-01
      0.00000000000000E+00   0.00000000000000E+00   0.00000000000000E+00   0.00000000000000E+00  -2.86867585721207E-21
     -1.41746778774818E-15  -1.41747065642404E-15  -5.14167730699494E-15   0.00000000000000E+00   0.00000000000000E+00
      0.00000000000000E+00   0.00000000000000E+00  -2.18649988054972E-19   2.38028330850082E-25  -2.18649750026641E-19
      1.72036803000887E-15   1.32866666666667E+00   1.32866666666667E+00   0.00000000000000E+00   0.00000000000000E+00
      1.41765733335990E-15   3.19728141625750E-20   1.41768930617407E-15   3.28898313334810E-15   0.00000000000000E+00
      0.00000000000000E+00   0.00000000000000E+00   0.00000000000000E+00   0.00000000000000E+00   0.00000000000000E+00
      0.00000000000000E+00   1.32326143637978E-16
      4.67888888888889E-01
      0.00000000000000E+00   0.00000000000000E+00   0.00000000000000E+00   0.00000000000000E+00  -3.90701186785057E-19
     -1.43479391047636E-15  -1.43518461166314E-15  -5.21211714469093E-15   0.00000000000000E+00   0.00000000000000E+00
      0.00000000000000E+00   0.00000000000000E+00   1.68961337486933E-19  -1.27951116756903E-24   1.68960057975765E-19
      1.72036803000880E-15   1.40366666666667E+00   1.40366666666667E+00   0.00000000000000E+00   0.00000000000000E+00
      1.43497991330378E-15   3.57383013807955E-20   1.43501565160517E-15   3.36550546760425E-15   0.00000000000000E+00
      0.00000000000000E+00   0.00000000000000E+00   0.00000000000000E+00   0.00000000000000E+00   0.00000000000000E+00
      0.00000000000000E+00   1.26243647077871E-16
      4.92888888888889E-01
      0.00000000000000E+00   0.00000000000000E+00   0.00000000000000E+00   0.00000000000000E+00  -2.25522202216474E-19
     -1.45380671594505E-15  -1.45403223814727E-15  -5.28219820873297E-15   0.00000000000000E+00   0.00000000000000E+00
      0.00000000000000E+00   0.00000000000000E+00   2.45561470340446E-21  -8.52092011415296E-25   2.45476261139304E-21
      1.72036803000926E-15   1.47866666666667E+00   1.47866666666667E+00   0.00000000000000E+00   0.00000000000000E+00
      1.45399295292468E-15   3.68304599745541E-20   1.45402978338466E-15   3.44168135379450E-15   0.00000000000000E+00
      0.00000000000000E+00   0.00000000000000E+00   0.00000000000000E+00   0.00000000000000E+00   0.00000000000000E+00
      0.00000000000000E+00   1.20148824929198E-16
      5.17888888888889E-01
      0.00000000000000E+00   0.00000000000000E+00   0.00000000000000E+00   0.00000000000000E+00   1.62292494219840E-19
     -1.47478050623948E-15  -1.47461821374526E-15  -5.35191271849836E-15   0.00000000000000E+00   0.00000000000000E+00
      0.00000000000000E+00   0.00000000000000E+00  -3.85683937679460E-19   1.96058444729053E-24  -3.85681977095013E-19
      1.72036803000925E-15   1.55366666666667E+00   1.55366666666667E+00   0.00000000000000E+00   0.00000000000000E+00
      1.47496705895409E-15   3.68367682650312E-20   1.47500389572235E-15   3.51750268456275E-15   0.00000000000000E+00
      0.00000000000000E+00   0.00000000000000E+00   0.00000000000000E+00   0.00000000000000E+00   0.00000000000000E+00
      0.00000000000000E+00   1.14042003926361E-16
      5.42888888888889E-01
      0.00000000000000E+00   0.00000000000000E+00   0.00000000000000E+00   0.00000000000000E+00  -2.25511249603909E-19
     -1.49831286647335E-15  -1.49853837772295E-15  -5.42125326123122E-15   0.00000000000000E+00   0.00000000000000E+00
      0.00000000000000E+00   0.00000000000000E+00   1.80050516275007E-21  -1.04611266351365E-25   1.80040055148372E-21
      1.72036803000924E-15   1.62866666666667E+00   1.62866666666667E+00   0.00000000000000E+00   0.00000000000000E+00
      1.49849973452328E-15   3.68427991248514E-20   1.49853657732240E-15   3.59296174381956E-15   0.00000000000000E+00
      0.00000000000000E+00   0.00000000000000E+00   0.00000000000000E+00   0.00000000000000E+00   0.00000000000000E+00
      0.00000000000000E+00   1.07923487402416E-16
      5.67888888888889E-01
      0.00000000000000E+00   0.00000000000000E+00   0.00000000000000E+00   0.00000000000000E+00   2.17400999306083E-19
     -1.52998216920334E-15  -1.52976476820403E-15  -5.49021645544983E-15   0.00000000000000E+00   0.00000000000000E+00
      0.00000000000000E+00   0.00000000000000E+00  -4.41426822100490E-19   3.60715055694954E-25  -4.41426461385435E-19
      1.72036803000922E-15   1.70366666666667E+00   1.70366666666667E+00   0.00000000000000E+00   0.00000000000000E+00
      1.53016934608976E-15   3.68485756627644E-20   1.53020619466542E-15   3.66805481826421E-15   0.00000000000000E+00
      0.00000000000000E+00   0.00000000000000E+00   0.00000000000000E+00   0.00000000000000E+00   0.00000000000000E+00
      0.00000000000000E+00   1.01793607176398E-16
      5.92888888888889E-01
      0.00000000000000E+00   0.00000000000000E+00   0.00000000000000E+00   0.00000000000000E+00  -2.25770555569783E-19
     -1.58164056958362E-15  -1.58186634013919E-15  -5.55880117568054E-15   0.00000000000000E+00   0.00000000000000E+00
      0.00000000000000E+00   0.00000000000000E+00   1.43196578786790E-21   1.56769770482516E-24   1.43353348557273E-21
      1.72036803000920E-15   1.77866666666667E+00   1.77866666666667E+00   0.00000000000000E+00   0.00000000000000E+00
      1.58182805248207E-15   3.68541236349111E-20   1.58186490660570E-15   3.74278039673990E-15   0.00000000000000E+00
      0.00000000000000E+00   0.00000000000000E+00   0.00000000000000E+00   0.00000000000000E+00   0.00000000000000E+00
      0.00000000000000E+00   9.56527489314349E-17
      6.17888888888889E-01
      0.00000000000000E+00   0.00000000000000E+00   0.00000000000000E+00   0.00000000000000E+00  -1.70349015075414E-19
     -1.66354333685014E-15  -1.66371368586522E-15  -5.62700134828838E-15   0.00000000000000E+00   0.00000000000000E+00
      0.00000000000000E+00   0.00000000000000E+00  -5.42532523590126E-20   1.23443959829066E-24  -5.42520179194143E-20
      1.72036803000916E-15   1.85366666666667E+00   1.85366666666667E+00   0.00000000000000E+00   0.00000000000000E+00
      1.66373126355480E-15   3.66743283372774E-20   1.66376793788313E-15   3.81713197857031E-15   0.00000000000000E+00
      0.00000000000000E+00   0.00000000000000E+00   0.00000000000000E+00   0.00000000000000E+00   0.00000000000000E+00
      0.00000000000000E+00   8.95013397089066E-17
      6.42888888888889E-01
      0.00000000000000E+00   0.00000000000000E+00   0.00000000000000E+00   0.00000000000000E+00  -2.25777048589675E-19
     -1.76733416281312E-15  -1.76755993986171E-15  -5.69479751238444E-15   0.00000000000000E+00   0.00000000000000E+00
      0.00000000000000E+00   0.00000000000000E+00   8.49178878266534E-22  -2.92835083284693E-25   8.48886043183249E-22
      1.72036803000917E-15   1.92866666666667E+00   1.92866666666667E+00   0.00000000000000E+00   0.00000000000000E+00
      1.76752225318004E-15   3.68377956281274E-20   1.76755909097566E-15   3.89108967061555E-15   0.00000000000000E+00
      0.00000000000000E+00   0.00000000000000E+00   0.00000000000000E+00   0.00000000000000E+00   0.00000000000000E+00
      0.00000000000000E+00   8.33398117597183E-17
      6.67888888888889E-01
      0.00000000000000E+00   0.00000000000000E+00   0.00000000000000E+00   0.00000000000000E+00  -2.81193408697040E-19
     -1.86154777686515E-15  -1.86182897027384E-15  -5.76215055000396E-15   0.00000000000000E+00   0.00000000000000E+00
      0.00000000000000E+00   0.00000000000000E+00   5.59479856274707E-20  -1.62516886203167E-24   5.59463604586087E-20
      1.72036803000919E-15   2.00366666666667E+00   2.00366666666667E+00   0.00000000000000E+00   0.00000000000000E+00
      1.86173620386533E-15   3.68200480524709E-20   1.86177302391339E-15   3.96461395584757E-15   0.00000000000000E+00
      0.00000000000000E+00   0.00000000000000E+00   0.00000000000000E+00   0.00000000000000E+00   0.00000000000000E+00
      0.00000000000000E+00   7.71685641471925E-17
      6.92888888888889E-01
      0.00000000000000E+00   0.00000000000000E+00   0.00000000000000E+00   0.00000000000000E+00   1.61875606876231E-19
     -1.92367307020847E-15  -1.92351119460160E-15  -5.82899719784249E-15   0.00000000000000E+00   0.00000000000000E+00
      0.00000000000000E+00   0.00000000000000E+00  -3.87469851939395E-19  -1.09685739390840E-25  -3.87469961625135E-19
      1.72036803000929E-15   2.07866666666667E+00   2.07866666666667E+00   0.00000000000000E+00   0.00000000000000E+00
      1.92386180189237E-15   3.68626708569111E-20   1.92389866456322E-15   4.03764123413984E-15   0.00000000000000E+00
      0.00000000000000E+00   0.00000000000000E+00   0.00000000000000E+00   0.00000000000000E+00   0.00000000000000E+00
      0.00000000000000E+00   7.09879336933375E-17
      7.17888888888889E-01
      0.00000000000000E+00   0.00000000000000E+00   0.00000000000000E+00   0.00000000000000E+00  -4.45726688331035E-21
     -1.95799155320349E-15  -1.95799601047037E-15  -5.89524541645253E-15   0.00000000000000E+00   0.00000000000000E+00
      0.00000000000000E+00   0.00000000000000E+00  -2.21468035298505E-19   1.77654326273958E-24  -2.21466258755242E-19
      1.72036803000953E-15   2.15366666666667E+00   2.15366666666667E+00   0.00000000000000E+00   0.00000000000000E+00
      1.95818059813127E-15   3.68785978622940E-20   1.95821747672913E-15   4.11007920861769E-15   0.00000000000000E+00
      0.00000000000000E+00   0.00000000000000E+00   0.00000000000000E+00   0.00000000000000E+00   0.00000000000000E+00
      0.00000000000000E+00   6.47981778253052E-17
      7.42888888888889E-01
      0.00000000000000E+00   0.00000000000000E+00   0.00000000000000E+00   0.00000000000000E+00   2.17127838686833E-19
     -1.97829286060685E-15  -1.97807573276816E-15  -5.96076901824336E-15   0.00000000000000E+00   0.00000000000000E+00
      0.00000000000000E+00   0.00000000000000E+00  -4.43374849850960E-19  -1.23297218718227E-24  -4.43376082823148E-19
      1.72036803000999E-15   2.22866666666667E+00   2.22866666666667E+00   0.00000000000000E+00   0.00000000000000E+00
      1.97848222631763E-15   3.68825333562296E-20   1.97851910885098E-15   4.18180152001317E-15   0.00000000000000E+00
      0.00000000000000E+00   0.00000000000000E+00   0.00000000000000E+00   0.00000000000000E+00   0.00000000000000E+00
      0.00000000000000E+00   5.85994682201924E-17
      7.67888888888889E-01
      0.00000000000000E+00   0.00000000000000E+00   0.00000000000000E+00   0.00000000000000E+00  -1.70854627105188E-19
     -1.99370763490675E-15  -1.99387848953386E-15  -6.02540415504050E-15   0.00000000000000E+00   0.00000000000000E+00
      0.00000000000000E+00   0.00000000000000E+00  -5.57450455440240E-20   8.82015424414866E-28  -5.57450446620086E-20
      1.72036803000899E-15   2.30366666666667E+00   2.30366666666667E+00   0.00000000000000E+00   0.00000000000000E+00
      1.99389734681957E-15   3.68877589439253E-20   1.99393423457852E-15   4.25264423270795E-15   0.00000000000000E+00
      0.00000000000000E+00   0.00000000000000E+00   0.00000000000000E+00   0.00000000000000E+00   0.00000000000000E+00
      0.00000000000000E+00   5.23918923235543E-17
      7.92888888888889E-01
      0.00000000000000E+00   0.00000000000000E+00   0.00000000000000E+00   0.00000000000000E+00   3.83100864300941E-19
     -2.00668619989673E-15  -2.00630309903243E-15  -6.08895587938965E-15   0.00000000000000E+00   0.00000000000000E+00
      0.00000000000000E+00   0.00000000000000E+00  -6.10029910631932E-19  -2.69935502099243E-24  -6.10032609986953E-19
      1.72036803000898E-15   2.37866666666667E+00   2.37866666666667E+00   0.00000000000000E+00   0.00000000000000E+00
      2.00687623977172E-15   3.68918706912262E-20   2.00691313164241E-15   4.32241239040727E-15   0.00000000000000E+00
      0.00000000000000E+00   0.00000000000000E+00   0.00000000000000E+00   0.00000000000000E+00   0.00000000000000E+00
      0.00000000000000E+00   4.61754589733827E-17
      8.17888888888889E-01
      0.00000000000000E+00   0.00000000000000E+00   0.00000000000000E+00   0.00000000000000E+00  -1.71125921328902E-19
     -2.01637128457541E-15  -2.01654241049674E-15  -6.15123018561434E-15   0.00000000000000E+00   0.00000000000000E+00
      0.00000000000000E+00   0.00000000000000E+00  -5.61314951980216E-20   3.22304051220730E-25  -5.61311728939704E-20
      1.72036803000898E-15   2.45366666666667E+00   2.45366666666667E+00   0.00000000000000E+00   0.00000000000000E+00
      2.01656164586966E-15   3.68957999784459E-20   2.01659854166964E-15   4.39091205032451E-15   0.00000000000000E+00
      0.00000000000000E+00   0.00000000000000E+00   0.00000000000000E+00   0.00000000000000E+00   0.00000000000000E+00
      0.00000000000000E+00   3.99501052808562E-17
      8.42888888888889E-01
      0.00000000000000E+00   0.00000000000000E+00   0.00000000000000E+00   0.00000000000000E+00  -1.15643512726398E-19
     -2.02257395907745E-15  -2.02268960259017E-15  -6.21210387458295E-15   0.00000000000000E+00   0.00000000000000E+00
      0.00000000000000E+00   0.00000000000000E+00  -1.11939158056562E-19  -1.65766426321972E-24  -1.11940815720825E-19
      1.72036803000897E-15   2.52866666666667E+00   2.52866666666667E+00   0.00000000000000E+00   0.00000000000000E+00
      2.02276464385945E-15   3.68995464325300E-20   2.02280154340589E-15   4.45802014044446E-15   0.00000000000000E+00
      0.00000000000000E+00   0.00000000000000E+00   0.00000000000000E+00   0.00000000000000E+00   0.00000000000000E+00
      0.00000000000000E+00   3.37157041295157E-17
      8.67888888888889E-01
      0.00000000000000E+00   0.00000000000000E+00   0.00000000000000E+00   0.00000000000000E+00  -1.15841475268608E-19