DF-ISE text

Info {
  version   = 1.0
  type      = xyplot
  datasets  = [
    "time"
    "substrate OuterVoltage" "substrate InnerVoltage" "substrate QuasiFermiPotential" "substrate DisplacementCurrent" "substrate eCurrent"
    "substrate hCurrent" "substrate TotalCurrent" "substrate Charge" "source OuterVoltage" "source InnerVoltage"
    "source QuasiFermiPotential" "source DisplacementCurrent" "source eCurrent" "source hCurrent" "source TotalCurrent"
    "source Charge" "drain OuterVoltage" "drain InnerVoltage" "drain QuasiFermiPotential" "drain DisplacementCurrent"
    "drain eCurrent" "drain hCurrent" "drain TotalCurrent" "drain Charge" "gate OuterVoltage"
    "gate InnerVoltage" "gate QuasiFermiPotential" "gate DisplacementCurrent" "gate eCurrent" "gate hCurrent"
    "gate TotalCurrent" "gate Charge" ]
  functions = [
    Time
    OuterVoltage InnerVoltage QuasiFermiPotential DisplacementCurrent eCurrent
    hCurrent TotalCurrent Charge OuterVoltage InnerVoltage
    QuasiFermiPotential DisplacementCurrent eCurrent hCurrent TotalCurrent
    Charge OuterVoltage InnerVoltage QuasiFermiPotential DisplacementCurrent
    eCurrent hCurrent TotalCurrent Charge OuterVoltage
    InnerVoltage QuasiFermiPotential DisplacementCurrent eCurrent hCurrent
    TotalCurrent Charge ]
}

Data {
      0.00000000000000E+00
      0.00000000000000E+00   0.00000000000000E+00   0.00000000000000E+00   0.00000000000000E+00  -3.00308165901444E-18
     -1.39797126659728E-27  -3.00308166041241E-18  -7.29449215813913E-15   0.00000000000000E+00   0.00000000000000E+00
      0.00000000000000E+00   0.00000000000000E+00   1.39941005765470E-18   5.41850674552642E-28   1.39941005819655E-18
      2.02489107678465E-15   0.00000000000000E+00   0.00000000000000E+00   0.00000000000000E+00   0.00000000000000E+00
      1.60367160135931E-18   8.56561595608679E-28   1.60367160221587E-18   2.02489107678465E-15   3.00000000000000E+00
      3.00000000000000E+00   0.00000000000000E+00   0.00000000000000E+00   0.00000000000000E+00   0.00000000000000E+00
      0.00000000000000E+00   3.24471000456985E-15
      1.00000000000000E-02
      0.00000000000000E+00   0.00000000000000E+00   0.00000000000000E+00   0.00000000000000E+00  -1.83953782263781E-17
     -5.39750277509467E-17  -7.23704059773248E-17  -7.32795637193888E-15   0.00000000000000E+00   0.00000000000000E+00
      0.00000000000000E+00   0.00000000000000E+00  -2.17364985946683E-06  -2.11517059938653E-25  -2.17364985946683E-06
      2.02486739054982E-15   3.00000000000000E-02   3.00000000000000E-02   0.00000000000000E+00   0.00000000000000E+00
      2.17364985953917E-06   3.27931847897938E-20   2.17364985953920E-06   2.07560324469351E-15   3.00000000000000E+00
      3.00000000000000E+00   0.00000000000000E+00   0.00000000000000E+00   0.00000000000000E+00   0.00000000000000E+00
      0.00000000000000E+00   3.22748573669555E-15
      2.33333333333333E-02
      0.00000000000000E+00   0.00000000000000E+00   0.00000000000000E+00   0.00000000000000E+00   6.96546806582580E-19
     -1.06133904739896E-16  -1.05437357933313E-16  -7.37351784794707E-15   0.00000000000000E+00   0.00000000000000E+00
      0.00000000000000E+00   0.00000000000000E+00  -4.44299597359486E-06  -4.33726272629936E-25  -4.44299597359486E-06
      2.02484201309999E-15   7.00000000000000E-02   7.00000000000000E-02   0.00000000000000E+00   0.00000000000000E+00
      4.44299597370027E-06   2.24638928869266E-20   4.44299597370029E-06   2.14275771395973E-15   3.00000000000000E+00
      3.00000000000000E+00   0.00000000000000E+00   0.00000000000000E+00   0.00000000000000E+00   0.00000000000000E+00
      0.00000000000000E+00   3.20591812088735E-15
      4.24444444444445E-02
      0.00000000000000E+00   0.00000000000000E+00   0.00000000000000E+00   0.00000000000000E+00   3.07974862615961E-18
     -1.72715556392009E-16  -1.69635807765850E-16  -7.44159568365917E-15   0.00000000000000E+00   0.00000000000000E+00
      0.00000000000000E+00   0.00000000000000E+00  -6.59205599669213E-06  -6.43502987903313E-25  -6.59205599669213E-06
      2.02481731190817E-15   1.27333333333333E-01   1.27333333333333E-01   0.00000000000000E+00   0.00000000000000E+00
      6.59205599686172E-06   3.60870446070832E-20   6.59205599686176E-06   2.23818363370488E-15   3.00000000000000E+00
      3.00000000000000E+00   0.00000000000000E+00   0.00000000000000E+00   0.00000000000000E+00   0.00000000000000E+00
      0.00000000000000E+00   3.17859473804611E-15
      6.74444444444444E-02
      0.00000000000000E+00   0.00000000000000E+00   0.00000000000000E+00   0.00000000000000E+00  -2.96571743770617E-18
     -2.71604774640267E-16  -2.74570492077973E-16  -7.53731424677580E-15   0.00000000000000E+00   0.00000000000000E+00
      0.00000000000000E+00   0.00000000000000E+00  -7.90646340078600E-06  -7.71643151418349E-25  -7.90646340078600E-06
      2.02480186401318E-15   2.02333333333333E-01   2.02333333333333E-01   0.00000000000000E+00   0.00000000000000E+00
      7.90646340106052E-06   4.76561284076102E-20   7.90646340106056E-06   2.36168179296417E-15   3.00000000000000E+00
      3.00000000000000E+00   0.00000000000000E+00   0.00000000000000E+00   0.00000000000000E+00   0.00000000000000E+00
      0.00000000000000E+00   3.15083058979845E-15
      9.24444444444444E-02
      0.00000000000000E+00   0.00000000000000E+00   0.00000000000000E+00   0.00000000000000E+00  -2.24353915367747E-18
     -3.90209069114047E-16  -3.92452608267725E-16  -7.63983788106029E-15   0.00000000000000E+00   0.00000000000000E+00
      0.00000000000000E+00   0.00000000000000E+00  -8.30393512610702E-06  -8.10449760952871E-25  -8.30393512610702E-06
      2.02479713990669E-15   2.77333333333333E-01   2.77333333333333E-01   0.00000000000000E+00   0.00000000000000E+00
      8.30393512649942E-06   4.75868130444591E-20   8.30393512649947E-06   2.48377690934441E-15   3.00000000000000E+00
      3.00000000000000E+00   0.00000000000000E+00   0.00000000000000E+00   0.00000000000000E+00   0.00000000000000E+00
      0.00000000000000E+00   3.13126383180919E-15
      1.17444444444444E-01
      0.00000000000000E+00   0.00000000000000E+00   0.00000000000000E+00   0.00000000000000E+00  -8.43429024601797E-20
     -5.30939061043307E-16  -5.31023403945767E-16  -7.74507426136290E-15   0.00000000000000E+00   0.00000000000000E+00
      0.00000000000000E+00   0.00000000000000E+00  -8.44329446021702E-06  -8.23238153384442E-25  -8.44329446021702E-06
      2.02479547767049E-15   3.52333333333333E-01   3.52333333333333E-01   0.00000000000000E+00   0.00000000000000E+00
      8.44329446074799E-06   4.81589453359882E-20   8.44329446074804E-06   2.60446009311323E-15   3.00000000000000E+00
      3.00000000000000E+00   0.00000000000000E+00   0.00000000000000E+00   0.00000000000000E+00   0.00000000000000E+00
      0.00000000000000E+00   3.11581869057919E-15
      1.42444444444444E-01
      0.00000000000000E+00   0.00000000000000E+00   0.00000000000000E+00   0.00000000000000E+00   5.48501353733973E-18
     -6.97218184820264E-16  -6.91733171282924E-16  -7.85042143361457E-15   0.00000000000000E+00   0.00000000000000E+00
      0.00000000000000E+00   0.00000000000000E+00  -8.52747281626108E-06  -8.32513118354661E-25  -8.52747281626108E-06
      2.02479447212490E-15   4.27333333333333E-01   4.27333333333333E-01   0.00000000000000E+00   0.00000000000000E+00
      8.52747281695276E-06   4.81841290397891E-20   8.52747281695281E-06   2.72355897738413E-15   3.00000000000000E+00
      3.00000000000000E+00   0.00000000000000E+00   0.00000000000000E+00   0.00000000000000E+00   0.00000000000000E+00
      0.00000000000000E+00   3.10206798410553E-15
      1.67444444444444E-01
      0.00000000000000E+00   0.00000000000000E+00   0.00000000000000E+00   0.00000000000000E+00  -3.84710433612429E-18
     -8.98135461034005E-16  -9.01982565370129E-16  -7.95497676220651E-15   0.00000000000000E+00   0.00000000000000E+00
      0.00000000000000E+00   0.00000000000000E+00  -8.58875507969775E-06  -8.38903214326991E-25  -8.58875507969775E-06
      2.02479373937428E-15   5.02333333333333E-01   5.02333333333333E-01   0.00000000000000E+00   0.00000000000000E+00
      8.58875508059967E-06   4.81823058318915E-20   8.58875508059972E-06   2.84075882018428E-15   3.00000000000000E+00
      3.00000000000000E+00   0.00000000000000E+00   0.00000000000000E+00   0.00000000000000E+00   0.00000000000000E+00
      0.00000000000000E+00   3.08942420264794E-15
      1.92444444444444E-01
      0.00000000000000E+00   0.00000000000000E+00   0.00000000000000E+00   0.00000000000000E+00   4.86852036108581E-18
     -1.13902616750352E-15  -1.13415764714244E-15  -8.05789384166441E-15   0.00000000000000E+00   0.00000000000000E+00
      0.00000000000000E+00   0.00000000000000E+00  -8.63807546307086E-06  -8.43592538602288E-25  -8.63807546307086E-06
      2.02479314921752E-15   5.77333333333333E-01   5.77333333333333E-01   0.00000000000000E+00   0.00000000000000E+00
      8.63807546420497E-06   4.81843547884962E-20   8.63807546420502E-06   2.95557382444836E-15   3.00000000000000E+00
      3.00000000000000E+00   0.00000000000000E+00   0.00000000000000E+00   0.00000000000000E+00   0.00000000000000E+00
      0.00000000000000E+00   3.07752686799852E-15
      2.17444444444444E-01
      0.00000000000000E+00   0.00000000000000E+00   0.00000000000000E+00   0.00000000000000E+00   2.09857417267278E-18
     -1.38348418184894E-15  -1.38138560767627E-15  -8.15834263508643E-15   0.00000000000000E+00   0.00000000000000E+00
      0.00000000000000E+00   0.00000000000000E+00  -8.68030628314632E-06  -8.47078949040003E-25  -8.68030628314632E-06
      2.02479264358448E-15   6.52333333333333E-01   6.52333333333333E-01   0.00000000000000E+00   0.00000000000000E+00
      8.68030628452766E-06   4.81904256278568E-20   8.68030628452770E-06   3.06738803841943E-15   3.00000000000000E+00
      3.00000000000000E+00   0.00000000000000E+00   0.00000000000000E+00   0.00000000000000E+00   0.00000000000000E+00
      0.00000000000000E+00   3.06616195308252E-15
      2.42444444444444E-01
      0.00000000000000E+00   0.00000000000000E+00   0.00000000000000E+00   0.00000000000000E+00  -4.04881462070637E-19
     -1.56009560857579E-15  -1.56050049003786E-15  -8.25559011922637E-15   0.00000000000000E+00   0.00000000000000E+00
      0.00000000000000E+00   0.00000000000000E+00  -8.71789249938271E-06  -8.51605317249138E-25  -8.71789249938271E-06
      2.02479219332223E-15   7.27333333333333E-01   7.27333333333333E-01   0.00000000000000E+00   0.00000000000000E+00
      8.71789250094316E-06   4.81983651245732E-20   8.71789250094321E-06   3.17559385119598E-15   3.00000000000000E+00
      3.00000000000000E+00   0.00000000000000E+00   0.00000000000000E+00   0.00000000000000E+00   0.00000000000000E+00
      0.00000000000000E+00   3.05520407470815E-15
      2.67444444444444E-01
      0.00000000000000E+00   0.00000000000000E+00   0.00000000000000E+00   0.00000000000000E+00   2.70797511689926E-18
     -1.65747876272678E-15  -1.65477078760988E-15  -8.34934637262423E-15   0.00000000000000E+00   0.00000000000000E+00
      0.00000000000000E+00   0.00000000000000E+00  -8.75181760717586E-06  -8.53584982719378E-25  -8.75181760717586E-06
      2.02479178672425E-15   8.02333333333333E-01   8.02333333333333E-01   0.00000000000000E+00   0.00000000000000E+00
      8.75181760883058E-06   4.82068476291037E-20   8.75181760883063E-06   3.27991389255986E-15   3.00000000000000E+00
      3.00000000000000E+00   0.00000000000000E+00   0.00000000000000E+00   0.00000000000000E+00   0.00000000000000E+00
      0.00000000000000E+00   3.04464069334013E-15
      2.92444444444444E-01
      0.00000000000000E+00   0.00000000000000E+00   0.00000000000000E+00   0.00000000000000E+00   1.79785002490954E-18
     -1.71506610301512E-15  -1.71326825299021E-15  -8.44003473500185E-15   0.00000000000000E+00   0.00000000000000E+00
      0.00000000000000E+00   0.00000000000000E+00  -8.78243145932124E-06  -8.57112916194170E-25  -8.78243145932124E-06
      2.02479141965421E-15   8.77333333333333E-01   8.77333333333333E-01   0.00000000000000E+00   0.00000000000000E+00
      8.78243146103445E-06   4.82152851934748E-20   8.78243146103450E-06   3.38071720048598E-15   3.00000000000000E+00
      3.00000000000000E+00   0.00000000000000E+00   0.00000000000000E+00   0.00000000000000E+00   0.00000000000000E+00
      0.00000000000000E+00   3.03452611486165E-15
      3.17444444444444E-01
      0.00000000000000E+00   0.00000000000000E+00   0.00000000000000E+00   0.00000000000000E+00  -2.07372235103492E-18
     -1.75857382659139E-15  -1.76064754894243E-15  -8.52873288804235E-15   0.00000000000000E+00   0.00000000000000E+00
      0.00000000000000E+00   0.00000000000000E+00  -8.80981987776999E-06  -8.60262361568830E-25  -8.80981987776999E-06
      2.02479109113103E-15   9.52333333333333E-01   9.52333333333333E-01   0.00000000000000E+00   0.00000000000000E+00
      8.80981987953059E-06   4.82235354916667E-20   8.80981987953064E-06   3.47898662812125E-15   3.00000000000000E+00
      3.00000000000000E+00   0.00000000000000E+00   0.00000000000000E+00   0.00000000000000E+00   0.00000000000000E+00
      0.00000000000000E+00   3.02495516879007E-15
      3.42444444444444E-01
      0.00000000000000E+00   0.00000000000000E+00   0.00000000000000E+00   0.00000000000000E+00  -1.47497216339514E-18
     -1.79218607311615E-15  -1.79366104527954E-15  -8.61667089647965E-15   0.00000000000000E+00   0.00000000000000E+00
      0.00000000000000E+00   0.00000000000000E+00  -8.83409579299107E-06  -8.61404093575560E-25  -8.83409579299107E-06
      2.02479079984176E-15   1.02733333333333E+00   1.02733333333333E+00   0.00000000000000E+00   0.00000000000000E+00
      8.83409579478468E-06   4.82316342379858E-20   8.83409579478473E-06   3.57586471312471E-15   3.00000000000000E+00
      3.00000000000000E+00   0.00000000000000E+00   0.00000000000000E+00   0.00000000000000E+00   0.00000000000000E+00
      0.00000000000000E+00   3.01601538351318E-15
      3.67444444444445E-01
      0.00000000000000E+00   0.00000000000000E+00   0.00000000000000E+00   0.00000000000000E+00   8.24161879820552E-19
     -1.81764247511128E-15  -1.81681831323145E-15  -8.70475883172903E-15   0.00000000000000E+00   0.00000000000000E+00
      0.00000000000000E+00   0.00000000000000E+00  -8.85557943538058E-06  -8.63938420193066E-25  -8.85557943538058E-06
      2.02479054197848E-15   1.10233333333333E+00   1.10233333333333E+00   0.00000000000000E+00   0.00000000000000E+00
      8.85557943719735E-06   4.82396357820514E-20   8.85557943719740E-06   3.67223580607664E-15   3.00000000000000E+00
      3.00000000000000E+00   0.00000000000000E+00   0.00000000000000E+00   0.00000000000000E+00   0.00000000000000E+00
      0.00000000000000E+00   3.00773248367390E-15
      3.92444444444445E-01
      0.00000000000000E+00   0.00000000000000E+00   0.00000000000000E+00   0.00000000000000E+00   2.30089466674186E-18
     -1.84034010241455E-15  -1.83803920774781E-15  -8.79344723070985E-15   0.00000000000000E+00   0.00000000000000E+00
      0.00000000000000E+00   0.00000000000000E+00  -8.87479011649640E-06  -8.66201099921612E-25  -8.87479011649640E-06
      2.02479031133434E-15   1.17733333333333E+00   1.17733333333333E+00   0.00000000000000E+00   0.00000000000000E+00
      8.87479011833439E-06   4.82475885844717E-20   8.87479011833444E-06   3.76860964242576E-15   3.00000000000000E+00
      3.00000000000000E+00   0.00000000000000E+00   0.00000000000000E+00   0.00000000000000E+00   0.00000000000000E+00
      0.00000000000000E+00   3.00004727694976E-15
      4.17444444444445E-01
      0.00000000000000E+00   0.00000000000000E+00   0.00000000000000E+00   0.00000000000000E+00  -2.02024229628102E-18
     -1.86341467542929E-15  -1.86543491772557E-15  -8.88276938367007E-15   0.00000000000000E+00   0.00000000000000E+00
      0.00000000000000E+00   0.00000000000000E+00  -8.89232214584927E-06  -8.68767543144387E-25  -8.89232214584927E-06
      2.02479010079246E-15   1.25233333333333E+00   1.25233333333333E+00   0.00000000000000E+00   0.00000000000000E+00
      8.89232214771465E-06   4.82556002017801E-20   8.89232214771470E-06   3.86514511229701E-15   3.00000000000000E+00
      3.00000000000000E+00   0.00000000000000E+00   0.00000000000000E+00   0.00000000000000E+00   0.00000000000000E+00
      0.00000000000000E+00   2.99283417058060E-15
      4.42444444444445E-01
      0.00000000000000E+00   0.00000000000000E+00   0.00000000000000E+00   0.00000000000000E+00   1.45216652417977E-15
     -1.88588108727355E-15  -4.33714563093775E-16  -8.97241216070553E-15   0.00000000000000E+00   0.00000000000000E+00
      0.00000000000000E+00   0.00000000000000E+00  -8.90876948225322E-06  -8.70418744958963E-25  -8.90876948225322E-06
      2.02478990323178E-15   1.32733333333333E+00   1.32733333333333E+00   0.00000000000000E+00   0.00000000000000E+00
      8.90876948268688E-06   4.82638504298903E-20   8.90876948268692E-06   3.96169915939985E-15   3.00000000000000E+00
      3.00000000000000E+00   0.00000000000000E+00   0.00000000000000E+00   0.00000000000000E+00   0.00000000000000E+00
      0.00000000000000E+00   2.98592309807388E-15
      4.67444444444445E-01
      0.00000000000000E+00   0.00000000000000E+00   0.00000000000000E+00   0.00000000000000E+00   1.21250244817765E-16
     -1.90574688574430E-15  -1.78449664092653E-15  -9.06199044235136E-15   0.00000000000000E+00   0.00000000000000E+00
      0.00000000000000E+00   0.00000000000000E+00  -8.92459491564047E-06  -8.71077799377156E-25  -8.92459491564047E-06
      2.02478971310020E-15   1.40233333333333E+00   1.40233333333333E+00   0.00000000000000E+00   0.00000000000000E+00
      8.92459491742492E-06   4.82724592760547E-20   8.92459491742497E-06   4.05803699756711E-15   3.00000000000000E+00
      3.00000000000000E+00   0.00000000000000E+00   0.00000000000000E+00   0.00000000000000E+00   0.00000000000000E+00
      0.00000000000000E+00   2.97916373168405E-15
      4.92444444444445E-01
      0.00000000000000E+00   0.00000000000000E+00   0.00000000000000E+00   0.00000000000000E+00  -3.13717282068901E-18
     -1.92259416388260E-15  -1.92573133670329E-15  -9.15129958584302E-15   0.00000000000000E+00   0.00000000000000E+00
      0.00000000000000E+00   0.00000000000000E+00  -8.94000661706018E-06  -8.72657939842208E-25  -8.94000661706018E-06
      2.02478952790064E-15   1.47733333333333E+00   1.47733333333333E+00   0.00000000000000E+00   0.00000000000000E+00
      8.94000661898586E-06   4.82810159298033E-20   8.94000661898591E-06   4.15402166678766E-15   3.00000000000000E+00
      3.00000000000000E+00   0.00000000000000E+00   0.00000000000000E+00   0.00000000000000E+00   0.00000000000000E+00
      0.00000000000000E+00   2.97248839115472E-15
      5.17444444444445E-01
      0.00000000000000E+00   0.00000000000000E+00   0.00000000000000E+00   0.00000000000000E+00  -1.57637127795440E-18
     -1.93869006142906E-15  -1.94026643270702E-15  -9.24026514452949E-15   0.00000000000000E+00   0.00000000000000E+00
      0.00000000000000E+00   0.00000000000000E+00  -8.95505438899246E-06  -8.74233739882067E-25  -8.95505438899246E-06
      2.02478934703750E-15   1.55233333333333E+00   1.55233333333333E+00   0.00000000000000E+00   0.00000000000000E+00
      8.95505439093268E-06   4.82893013023402E-20   8.95505439093272E-06   4.24958998706035E-15   3.00000000000000E+00
      3.00000000000000E+00   0.00000000000000E+00   0.00000000000000E+00   0.00000000000000E+00   0.00000000000000E+00
      0.00000000000000E+00   2.96588581043163E-15
      5.42444444444445E-01
      0.00000000000000E+00   0.00000000000000E+00   0.00000000000000E+00   0.00000000000000E+00  -3.52663538033297E-18
     -1.95960351189715E-15  -1.96313014727748E-15  -9.32885269408088E-15   0.00000000000000E+00   0.00000000000000E+00
      0.00000000000000E+00   0.00000000000000E+00  -8.96972495260762E-06  -8.75884066766567E-25  -8.96972495260762E-06
      2.02478917067308E-15   1.62733333333333E+00   1.62733333333333E+00   0.00000000000000E+00   0.00000000000000E+00
      8.96972495457070E-06   4.82972853163001E-20   8.96972495457074E-06   4.34469482991193E-15   3.00000000000000E+00
      3.00000000000000E+00   0.00000000000000E+00   0.00000000000000E+00   0.00000000000000E+00   0.00000000000000E+00
      0.00000000000000E+00   2.95936869349587E-15
      5.67444444444445E-01
      0.00000000000000E+00   0.00000000000000E+00   0.00000000000000E+00   0.00000000000000E+00   2.89696408418532E-18
     -1.99447317969529E-15  -1.99157621561110E-15  -9.41703016951814E-15   0.00000000000000E+00   0.00000000000000E+00
      0.00000000000000E+00   0.00000000000000E+00  -8.98397966560581E-06  -8.75657908003620E-25  -8.98397966560581E-06
      2.02478899927468E-15   1.70233333333333E+00   1.70233333333333E+00   0.00000000000000E+00   0.00000000000000E+00
      8.98397966759734E-06   4.83049883883040E-20   8.98397966759739E-06   4.43928082803470E-15   3.00000000000000E+00
      3.00000000000000E+00   0.00000000000000E+00   0.00000000000000E+00   0.00000000000000E+00   0.00000000000000E+00
      0.00000000000000E+00   2.95296034220875E-15
      5.92444444444445E-01
      0.00000000000000E+00   0.00000000000000E+00   0.00000000000000E+00   0.00000000000000E+00   2.71225761174196E-18
     -2.05615232946926E-15  -2.05344007185752E-15  -9.50475732812841E-15   0.00000000000000E+00   0.00000000000000E+00
      0.00000000000000E+00   0.00000000000000E+00  -8.99777849042041E-06  -8.79015278003507E-25  -8.99777849042041E-06
      2.02478883332671E-15   1.77733333333333E+00   1.77733333333333E+00   0.00000000000000E+00   0.00000000000000E+00
      8.99777849247380E-06   4.83124345090996E-20   8.99777849247385E-06   4.53328326326685E-15   3.00000000000000E+00
      3.00000000000000E+00   0.00000000000000E+00   0.00000000000000E+00   0.00000000000000E+00   0.00000000000000E+00
      0.00000000000000E+00   2.94668523153486E-15
      6.17444444444445E-01
      0.00000000000000E+00   0.00000000000000E+00   0.00000000000000E+00   0.00000000000000E+00   1.00797255794139E-18
     -2.15757498293218E-15  -2.15656701037424E-15  -9.59198759670760E-15   0.00000000000000E+00   0.00000000000000E+00
      0.00000000000000E+00   0.00000000000000E+00  -9.01111471155461E-06  -8.79296748169094E-25  -9.01111471155461E-06
      2.02478867291296E-15   1.85233333333333E+00   1.85233333333333E+00   0.00000000000000E+00   0.00000000000000E+00
      9.01111471371112E-06   4.83196439179787E-20   9.01111471371117E-06   4.62664528987220E-15   3.00000000000000E+00
      3.00000000000000E+00   0.00000000000000E+00   0.00000000000000E+00   0.00000000000000E+00   0.00000000000000E+00
      0.00000000000000E+00   2.94055363392243E-15
      6.42444444444445E-01
      0.00000000000000E+00   0.00000000000000E+00   0.00000000000000E+00   0.00000000000000E+00   2.06621155408168E-18
     -2.29646482829080E-15  -2.29439861673672E-15  -9.67867362105653E-15   0.00000000000000E+00   0.00000000000000E+00
      0.00000000000000E+00   0.00000000000000E+00  -9.02404530511941E-06  -8.79982870579709E-25  -9.02404530511941E-06
      2.02478851735091E-15   1.92733333333333E+00   1.92733333333333E+00   0.00000000000000E+00   0.00000000000000E+00
      9.02404530741375E-06   4.83266319737272E-20   9.02404530741380E-06   4.71933820218643E-15   3.00000000000000E+00
      3.00000000000000E+00   0.00000000000000E+00   0.00000000000000E+00   0.00000000000000E+00   0.00000000000000E+00
      0.00000000000000E+00   2.93454690151918E-15
      6.67444444444445E-01
      0.00000000000000E+00   0.00000000000000E+00   0.00000000000000E+00   0.00000000000000E+00   9.58820892174929E-19
     -2.44138757696584E-15  -2.44042875607367E-15  -9.76476525409800E-15   0.00000000000000E+00   0.00000000000000E+00
      0.00000000000000E+00   0.00000000000000E+00  -9.03667524096365E-06  -8.82481054048514E-25  -9.03667524096365E-06
      2.02478836537992E-15   2.00233333333333E+00   2.00233333333333E+00   0.00000000000000E+00   0.00000000000000E+00
      9.03667524340402E-06   4.83334111781120E-20   9.03667524340407E-06   4.81135410010328E-15   3.00000000000000E+00
      3.00000000000000E+00   0.00000000000000E+00   0.00000000000000E+00   0.00000000000000E+00   0.00000000000000E+00
      0.00000000000000E+00   2.92862278861480E-15
      6.92444444444445E-01
      0.00000000000000E+00   0.00000000000000E+00   0.00000000000000E+00   0.00000000000000E+00   8.69566307097441E-19
     -2.55375874185154E-15  -2.55288917554445E-15  -9.85019352201632E-15   0.00000000000000E+00   0.00000000000000E+00
      0.00000000000000E+00   0.00000000000000E+00  -9.04910168103564E-06  -8.82484315397405E-25  -9.04910168103564E-06
      2.02478821583243E-15   2.07733333333333E+00   2.07733333333333E+00   0.00000000000000E+00   0.00000000000000E+00
      9.04910168358848E-06   4.83399895873615E-20   9.04910168358852E-06   4.90266521515073E-15   3.00000000000000E+00
      3.00000000000000E+00   0.00000000000000E+00   0.00000000000000E+00   0.00000000000000E+00   0.00000000000000E+00
      0.00000000000000E+00   2.92274009103316E-15
      7.17444444444445E-01
      0.00000000000000E+00   0.00000000000000E+00   0.00000000000000E+00   0.00000000000000E+00  -5.34994051547480E-19
     -2.62206688133480E-15  -2.62260187538635E-15  -9.93485168427558E-15   0.00000000000000E+00   0.00000000000000E+00
      0.00000000000000E+00   0.00000000000000E+00  -9.06138418102736E-06  -8.84406634166382E-25  -9.06138418102736E-06
      2.02478806799275E-15   2.15233333333333E+00   2.15233333333333E+00   0.00000000000000E+00   0.00000000000000E+00
      9.06138418364991E-06   4.83463717055066E-20   9.06138418364996E-06   4.99319052598557E-15   3.00000000000000E+00
      3.00000000000000E+00   0.00000000000000E+00   0.00000000000000E+00   0.00000000000000E+00   0.00000000000000E+00
      0.00000000000000E+00   2.91687309029727E-15
      7.42444444444445E-01
      0.00000000000000E+00   0.00000000000000E+00   0.00000000000000E+00   0.00000000000000E+00  -2.23951486656757E-18
     -2.65812135575417E-15  -2.66036087062074E-15  -1.00185841995370E-14   0.00000000000000E+00   0.00000000000000E+00
      0.00000000000000E+00   0.00000000000000E+00  -9.07355148811411E-06  -8.85514582245734E-25  -9.07355148811411E-06
      2.02478792151574E-15   2.22733333333333E+00   2.22733333333333E+00   0.00000000000000E+00   0.00000000000000E+00
      9.07355149077441E-06   4.83525571510922E-20   9.07355149077446E-06   5.08278678477572E-15   3.00000000000000E+00
      3.00000000000000E+00   0.00000000000000E+00   0.00000000000000E+00   0.00000000000000E+00   0.00000000000000E+00
      0.00000000000000E+00   2.91100949324556E-15
      7.67444444444445E-01
      0.00000000000000E+00   0.00000000000000E+00   0.00000000000000E+00   0.00000000000000E+00   1.92508973735908E-18
     -2.67645629590801E-15  -2.67453120617065E-15  -1.01011824684565E-14   0.00000000000000E+00   0.00000000000000E+00
      0.00000000000000E+00   0.00000000000000E+00  -9.08561668803744E-06  -8.86053139463933E-25  -9.08561668803744E-06
      2.02478777624426E-15   2.30233333333333E+00   2.30233333333333E+00   0.00000000000000E+00   0.00000000000000E+00
      9.08561669071192E-06   4.83585405886565E-20   9.08561669071197E-06   5.17125064188028E-15   3.00000000000000E+00
      3.00000000000000E+00   0.00000000000000E+00   0.00000000000000E+00   0.00000000000000E+00   0.00000000000000E+00
      0.00000000000000E+00   2.90514405033195E-15
      7.92444444444445E-01
      0.00000000000000E+00   0.00000000000000E+00   0.00000000000000E+00   0.00000000000000E+00   1.85551694492890E-18
     -2.68630919065958E-15  -2.68445367371465E-15  -1.01823898052809E-14   0.00000000000000E+00   0.00000000000000E+00
      0.00000000000000E+00   0.00000000000000E+00  -9.09758638060543E-06  -8.88463279691352E-25  -9.09758638060543E-06
      2.02478763209952E-15   2.37733333333333E+00   2.37733333333333E+00   0.00000000000000E+00   0.00000000000000E+00
      9.09758638328983E-06   4.83643119208087E-20   9.09758638328988E-06   5.25832758769178E-15   3.00000000000000E+00
      3.00000000000000E+00   0.00000000000000E+00   0.00000000000000E+00   0.00000000000000E+00   0.00000000000000E+00
      0.00000000000000E+00   2.89927458548957E-15
      8.17444444444445E-01
      0.00000000000000E+00   0.00000000000000E+00   0.00000000000000E+00   0.00000000000000E+00  -2.46732094118230E-19
     -2.69259319659754E-15  -2.69283992869166E-15  -1.02619332652942E-14   0.00000000000000E+00   0.00000000000000E+00
      0.00000000000000E+00   0.00000000000000E+00  -9.10946485475372E-06  -8.89870973098607E-25  -9.10946485475372E-06
      2.02478748903041E-15   2.45233333333333E+00   2.45233333333333E+00   0.00000000000000E+00   0.00000000000000E+00
      9.10946485744650E-06   4.83698584413997E-20   9.10946485744655E-06   5.34374561352467E-15   3.00000000000000E+00
      3.00000000000000E+00   0.00000000000000E+00   0.00000000000000E+00   0.00000000000000E+00   0.00000000000000E+00
      0.00000000000000E+00   2.89340016273912E-15
      8.42444444444445E-01
      0.00000000000000E+00   0.00000000000000E+00   0.00000000000000E+00   0.00000000000000E+00   3.75545970359558E-18
     -2.69804036903736E-15  -2.69428490933377E-15  -1.03396030799304E-14   0.00000000000000E+00   0.00000000000000E+00
      0.00000000000000E+00   0.00000000000000E+00  -9.12125580040210E-06  -8.90021182066190E-25  -9.12125580040210E-06
      2.02478734699303E-15   2.52733333333333E+00   2.52733333333333E+00   0.00000000000000E+00   0.00000000000000E+00
      9.12125580309633E-06   4.83751708468769E-20   9.12125580309637E-06   5.42729542674103E-15   3.00000000000000E+00
      3.00000000000000E+00   0.00000000000000E+00   0.00000000000000E+00   0.00000000000000E+00   0.00000000000000E+00
      0.00000000000000E+00   2.88752030619630E-15
      8.67444444444445E-01
      0.00000000000000E+00   0.00000000000000E+00   0.00000000000000E+00   0.00000000000000E+00   2.30632749476787E-18