DF-ISE text

Info {
  version   = 1.0
  type      = xyplot
  datasets  = [
    "time"
    "substrate OuterVoltage" "substrate InnerVoltage" "substrate QuasiFermiPotential" "substrate DisplacementCurrent" "substrate eCurrent"
    "substrate hCurrent" "substrate TotalCurrent" "substrate Charge" "source OuterVoltage" "source InnerVoltage"
    "source QuasiFermiPotential" "source DisplacementCurrent" "source eCurrent" "source hCurrent" "source TotalCurrent"
    "source Charge" "drain OuterVoltage" "drain InnerVoltage" "drain QuasiFermiPotential" "drain DisplacementCurrent"
    "drain eCurrent" "drain hCurrent" "drain TotalCurrent" "drain Charge" "gate OuterVoltage"
    "gate InnerVoltage" "gate QuasiFermiPotential" "gate DisplacementCurrent" "gate eCurrent" "gate hCurrent"
    "gate TotalCurrent" "gate Charge" ]
  functions = [
    Time
    OuterVoltage InnerVoltage QuasiFermiPotential DisplacementCurrent eCurrent
    hCurrent TotalCurrent Charge OuterVoltage InnerVoltage
    QuasiFermiPotential DisplacementCurrent eCurrent hCurrent TotalCurrent
    Charge OuterVoltage InnerVoltage QuasiFermiPotential DisplacementCurrent
    eCurrent hCurrent TotalCurrent Charge OuterVoltage
    InnerVoltage QuasiFermiPotential DisplacementCurrent eCurrent hCurrent
    TotalCurrent Charge ]
}

Data {
      0.00000000000000E+00
      0.00000000000000E+00   0.00000000000000E+00   0.00000000000000E+00   0.00000000000000E+00   1.47048491574783E-20
     -2.22841575851861E-23   1.46825649998931E-20  -5.40813377646009E-15   0.00000000000000E+00   0.00000000000000E+00
      0.00000000000000E+00   0.00000000000000E+00  -5.34875928637996E-22  -1.38425452596438E-24  -5.36260183163960E-22
      2.49738004793423E-15   0.00000000000000E+00   0.00000000000000E+00   0.00000000000000E+00   0.00000000000000E+00
     -1.41699732296725E-20   2.36684129434064E-23  -1.41463048167291E-20   2.49738004793423E-15   0.00000000000000E+00
      0.00000000000000E+00   0.00000000000000E+00   0.00000000000000E+00   0.00000000000000E+00   0.00000000000000E+00
      0.00000000000000E+00   4.13373680591646E-16
      1.00000000000000E-02
      0.00000000000000E+00   0.00000000000000E+00   0.00000000000000E+00   0.00000000000000E+00   1.97038423086167E-17
     -5.58655560419159E-17  -3.61617137332992E-17  -5.46379145879205E-15   0.00000000000000E+00   0.00000000000000E+00
      0.00000000000000E+00   0.00000000000000E+00  -1.71819776778491E-19  -7.46369826727270E-24  -1.71827240476758E-19
      2.49738004793420E-15   3.00000000000000E-02   3.00000000000000E-02   0.00000000000000E+00   0.00000000000000E+00
      3.63143683497886E-17   1.91726239874562E-20   3.63335409737761E-17   2.55498460417885E-15   0.00000000000000E+00
      0.00000000000000E+00   0.00000000000000E+00   0.00000000000000E+00   0.00000000000000E+00   0.00000000000000E+00
      0.00000000000000E+00   4.11426806679003E-16
      2.33333333333333E-02
      0.00000000000000E+00   0.00000000000000E+00   0.00000000000000E+00   0.00000000000000E+00   3.91552551627122E-14
     -1.09225459972841E-16   3.90460297027394E-14  -5.53750337856149E-15   0.00000000000000E+00   0.00000000000000E+00
      0.00000000000000E+00   0.00000000000000E+00  -4.12979903543047E-20  -7.56104066674507E-24  -4.13055513949715E-20
      2.49738004793416E-15   7.00000000000000E-02   7.00000000000000E-02   0.00000000000000E+00   0.00000000000000E+00
     -3.90445369709179E-14  -1.45142627001219E-18  -3.90459883971879E-14   2.63127322249239E-15   0.00000000000000E+00
      0.00000000000000E+00   0.00000000000000E+00   0.00000000000000E+00   0.00000000000000E+00   0.00000000000000E+00
      0.00000000000000E+00   4.08850108134939E-16
      4.28888888888889E-02
      0.00000000000000E+00   0.00000000000000E+00   0.00000000000000E+00   0.00000000000000E+00   3.47486082861098E-20
     -1.82188103849800E-16  -1.82153355241514E-16  -5.64470654604607E-15   0.00000000000000E+00   0.00000000000000E+00
      0.00000000000000E+00   0.00000000000000E+00  -1.91200762018119E-19   1.60187679073250E-24  -1.91199160141328E-19
      2.49738004793415E-15   1.28666666666667E-01   1.28666666666667E-01   0.00000000000000E+00   0.00000000000000E+00
      1.82279357215349E-16   6.51971863069224E-20   1.82344554401656E-16   2.74220884046096E-15   0.00000000000000E+00
      0.00000000000000E+00   0.00000000000000E+00   0.00000000000000E+00   0.00000000000000E+00   0.00000000000000E+00
      0.00000000000000E+00   4.05117657650965E-16
      6.78888888888889E-02
      0.00000000000000E+00   0.00000000000000E+00   0.00000000000000E+00   0.00000000000000E+00   4.36627006712731E-20
     -2.89538665643053E-16  -2.89495002942382E-16  -5.78029754835240E-15   0.00000000000000E+00   0.00000000000000E+00
      0.00000000000000E+00   0.00000000000000E+00  -2.07091703635554E-19  -1.00423083529416E-25  -2.07091804058638E-19
      2.49738004793410E-15   2.03666666666667E-01   2.03666666666667E-01   0.00000000000000E+00   0.00000000000000E+00
      2.89647331495347E-16   5.47632510940125E-20   2.89702094746441E-16   2.88247333871014E-15   0.00000000000000E+00
      0.00000000000000E+00   0.00000000000000E+00   0.00000000000000E+00   0.00000000000000E+00   0.00000000000000E+00
      0.00000000000000E+00   4.00444161708146E-16
      9.28888888888889E-02
      0.00000000000000E+00   0.00000000000000E+00   0.00000000000000E+00   0.00000000000000E+00   1.35069333534842E-18
     -4.26928004362727E-16  -4.25577311027379E-16  -5.91423039340780E-15   0.00000000000000E+00   0.00000000000000E+00
      0.00000000000000E+00   0.00000000000000E+00  -1.94199374986194E-20   3.01852631821839E-25  -1.94196356459876E-20
      2.49738004793405E-15   2.78666666666667E-01   2.78666666666667E-01   0.00000000000000E+00   0.00000000000000E+00
      4.25559193611032E-16   3.75370519932175E-20   4.25596730663025E-16   3.02095611750355E-15   0.00000000000000E+00
      0.00000000000000E+00   0.00000000000000E+00   0.00000000000000E+00   0.00000000000000E+00   0.00000000000000E+00
      0.00000000000000E+00   3.95894227970188E-16
      1.17888888888889E-01
      0.00000000000000E+00   0.00000000000000E+00   0.00000000000000E+00   0.00000000000000E+00  -7.52638367387058E-20
     -5.87307353659348E-16  -5.87382617496087E-16  -6.04637310933551E-15   0.00000000000000E+00   0.00000000000000E+00
      0.00000000000000E+00   0.00000000000000E+00  -1.33634676690456E-19  -2.28663567868383E-24  -1.33636963326135E-19
      2.49738004793398E-15   3.53666666666667E-01   3.53666666666667E-01   0.00000000000000E+00   0.00000000000000E+00
      5.87462250011411E-16   5.40044480026814E-20   5.87516254459413E-16   3.15753952169957E-15   0.00000000000000E+00
      0.00000000000000E+00   0.00000000000000E+00   0.00000000000000E+00   0.00000000000000E+00   0.00000000000000E+00
      0.00000000000000E+00   3.91453539701952E-16
      1.42888888888889E-01
      0.00000000000000E+00   0.00000000000000E+00   0.00000000000000E+00   0.00000000000000E+00   4.15112754083300E-20
     -7.62279408259718E-16  -7.62237896984310E-16  -6.17650340714833E-15   0.00000000000000E+00   0.00000000000000E+00
      0.00000000000000E+00   0.00000000000000E+00  -2.48301646048784E-19   6.99568457442229E-24  -2.48294650364210E-19
      2.49738004793391E-15   4.28666666666667E-01   4.28666666666667E-01   0.00000000000000E+00   0.00000000000000E+00
      7.62470422337098E-16   1.57692975755381E-20   7.62486191634673E-16   3.29204299869460E-15   0.00000000000000E+00
      0.00000000000000E+00   0.00000000000000E+00   0.00000000000000E+00   0.00000000000000E+00   0.00000000000000E+00
      0.00000000000000E+00   3.87080360519800E-16
      1.67888888888889E-01
      0.00000000000000E+00   0.00000000000000E+00   0.00000000000000E+00   0.00000000000000E+00  -1.39519861546646E-20
     -9.63702441453382E-16  -9.63716393439537E-16  -6.30425367368613E-15   0.00000000000000E+00   0.00000000000000E+00
      0.00000000000000E+00   0.00000000000000E+00  -1.93638914162419E-19  -1.51856536510818E-23  -1.93654099816070E-19
      2.49738004793383E-15   5.03666666666667E-01   5.03666666666667E-01   0.00000000000000E+00   0.00000000000000E+00
      9.63836426333230E-16   7.36212061206768E-20   9.63910047539351E-16   3.42413974977484E-15   0.00000000000000E+00
      0.00000000000000E+00   0.00000000000000E+00   0.00000000000000E+00   0.00000000000000E+00   0.00000000000000E+00
      0.00000000000000E+00   3.82733875977457E-16
      1.92888888888889E-01
      0.00000000000000E+00   0.00000000000000E+00   0.00000000000000E+00   0.00000000000000E+00  -1.72785253725221E-19
     -1.20371986301331E-15  -1.20389264826703E-15  -6.42908457344845E-15   0.00000000000000E+00   0.00000000000000E+00
      0.00000000000000E+00   0.00000000000000E+00  -3.28237891930570E-20   1.91746410053983E-23  -3.28046145520516E-20
      2.49738004793373E-15   5.78666666666667E-01   5.78666666666667E-01   0.00000000000000E+00   0.00000000000000E+00
      1.20386066603232E-15   6.47868492667667E-20   1.20392545288158E-15   3.55331460177904E-15   0.00000000000000E+00
      0.00000000000000E+00   0.00000000000000E+00   0.00000000000000E+00   0.00000000000000E+00   0.00000000000000E+00
      0.00000000000000E+00   3.78389923735665E-16
      2.17888888888889E-01
      0.00000000000000E+00   0.00000000000000E+00   0.00000000000000E+00   0.00000000000000E+00  -1.36768369032943E-20
     -1.46023560155206E-15  -1.46024927838896E-15  -6.55034882092452E-15   0.00000000000000E+00   0.00000000000000E+00
      0.00000000000000E+00   0.00000000000000E+00  -1.91387055912155E-19  -3.73478779563499E-24  -1.91390790699951E-19
      2.49738004793363E-15   6.53666666666667E-01   6.53666666666667E-01   0.00000000000000E+00   0.00000000000000E+00
      1.46037740211548E-15   6.32670641830293E-20   1.46044066917966E-15   3.67893119487297E-15   0.00000000000000E+00
      0.00000000000000E+00   0.00000000000000E+00   0.00000000000000E+00   0.00000000000000E+00   0.00000000000000E+00
      0.00000000000000E+00   3.74037578117913E-16
      2.42888888888889E-01
      0.00000000000000E+00   0.00000000000000E+00   0.00000000000000E+00   0.00000000000000E+00   2.55430501587888E-20
     -1.66809431787868E-15  -1.66806877482853E-15  -6.66746780661125E-15   0.00000000000000E+00   0.00000000000000E+00
      0.00000000000000E+00   0.00000000000000E+00  -2.34504485417826E-19  -7.21889524115330E-25  -2.34505207307350E-19
      2.49738004793355E-15   7.28666666666667E-01   7.28666666666667E-01   0.00000000000000E+00   0.00000000000000E+00
      1.66824549776023E-15   5.77822755993336E-20   1.66830328003583E-15   3.80041519447334E-15   0.00000000000000E+00
      0.00000000000000E+00   0.00000000000000E+00   0.00000000000000E+00   0.00000000000000E+00   0.00000000000000E+00
      0.00000000000000E+00   3.69672564204366E-16
      2.67888888888889E-01
      0.00000000000000E+00   0.00000000000000E+00   0.00000000000000E+00   0.00000000000000E+00  -1.15909069838983E-19
     -1.79904417481580E-15  -1.79916008388564E-15  -6.78020629476645E-15   0.00000000000000E+00   0.00000000000000E+00
      0.00000000000000E+00   0.00000000000000E+00  -9.33855876338793E-20  -2.03091487713918E-23  -9.34058967826507E-20
      2.49738004793350E-15   8.03666666666667E-01   8.03666666666667E-01   0.00000000000000E+00   0.00000000000000E+00
      1.79919963486245E-15   5.38549199721651E-20   1.79925348978243E-15   3.91753283047241E-15   0.00000000000000E+00
      0.00000000000000E+00   0.00000000000000E+00   0.00000000000000E+00   0.00000000000000E+00   0.00000000000000E+00
      0.00000000000000E+00   3.65293416360540E-16
      2.92888888888889E-01
      0.00000000000000E+00   0.00000000000000E+00   0.00000000000000E+00   0.00000000000000E+00  -8.94743640588718E-20
     -1.87722017526194E-15  -1.87730964962599E-15  -6.88891671832675E-15   0.00000000000000E+00   0.00000000000000E+00
      0.00000000000000E+00   0.00000000000000E+00  -1.20152315390017E-19  -4.92274750991213E-24  -1.20157238137527E-19
      2.49738004793346E-15   8.78666666666667E-01   8.78666666666667E-01   0.00000000000000E+00   0.00000000000000E+00
      1.87740328592808E-15   2.65209360497278E-20   1.87742980686413E-15   4.03063688814031E-15   0.00000000000000E+00
      0.00000000000000E+00   0.00000000000000E+00   0.00000000000000E+00   0.00000000000000E+00   0.00000000000000E+00
      0.00000000000000E+00   3.60899782252961E-16
      3.17888888888889E-01
      0.00000000000000E+00   0.00000000000000E+00   0.00000000000000E+00   0.00000000000000E+00   1.20290541807374E-20
     -1.93047826659254E-15  -1.93046623753836E-15  -6.99450230641146E-15   0.00000000000000E+00   0.00000000000000E+00
      0.00000000000000E+00   0.00000000000000E+00  -2.21862380585392E-19   9.28308726203150E-24  -2.21853097498130E-19
      2.49738004793344E-15   9.53666666666667E-01   9.53666666666667E-01   0.00000000000000E+00   0.00000000000000E+00
      1.92928523137776E-15   1.40285925809998E-18   1.93068809063586E-15   4.14063051829033E-15   0.00000000000000E+00
      0.00000000000000E+00   0.00000000000000E+00   0.00000000000000E+00   0.00000000000000E+00   0.00000000000000E+00
      0.00000000000000E+00   3.56491740187679E-16
      3.42888888888889E-01
      0.00000000000000E+00   0.00000000000000E+00   0.00000000000000E+00   0.00000000000000E+00  -1.87510099288512E-19
     -1.96926451112274E-15  -1.96945202122203E-15  -7.09801497895667E-15   0.00000000000000E+00   0.00000000000000E+00
      0.00000000000000E+00   0.00000000000000E+00  -2.24164701589327E-20   1.37710165469393E-23  -2.24026991423858E-20
      2.49738004793342E-15   1.02866666666667E+00   1.02866666666667E+00   0.00000000000000E+00   0.00000000000000E+00
      1.96952566925618E-15  -5.12453350173112E-20   1.96947442392117E-15   4.24856539886404E-15   0.00000000000000E+00
      0.00000000000000E+00   0.00000000000000E+00   0.00000000000000E+00   0.00000000000000E+00   0.00000000000000E+00
      0.00000000000000E+00   3.52069532159193E-16
      3.67888888888889E-01
      0.00000000000000E+00   0.00000000000000E+00   0.00000000000000E+00   0.00000000000000E+00  -8.85104188256283E-20
     -2.00040660501773E-15  -2.00049511543656E-15  -7.20025988665946E-15   0.00000000000000E+00   0.00000000000000E+00
      0.00000000000000E+00   0.00000000000000E+00  -1.21704659518168E-19  -8.79156875745958E-24  -1.21713451086925E-19
      2.49738004793341E-15   1.10366666666667E+00   1.10366666666667E+00   0.00000000000000E+00   0.00000000000000E+00
      2.00054962807084E-15   6.72008168049151E-20   2.00061682888765E-15   4.35524637578466E-15   0.00000000000000E+00
      0.00000000000000E+00   0.00000000000000E+00   0.00000000000000E+00   0.00000000000000E+00   0.00000000000000E+00
      0.00000000000000E+00   3.47633462941379E-16
      3.92888888888889E-01
      0.00000000000000E+00   0.00000000000000E+00   0.00000000000000E+00   0.00000000000000E+00  -1.29226720933629E-19
     -2.02422694337756E-15  -2.02435617009849E-15  -7.30170906336856E-15   0.00000000000000E+00   0.00000000000000E+00
      0.00000000000000E+00   0.00000000000000E+00  -8.12495622025924E-20  -8.16143621319581E-24  -8.12577236388056E-20
      2.49738004793340E-15   1.17866666666667E+00   1.17866666666667E+00   0.00000000000000E+00   0.00000000000000E+00
      2.02438352757299E-15   5.39002491432553E-20   2.02443742782213E-15   4.46114514924555E-15   0.00000000000000E+00
      0.00000000000000E+00   0.00000000000000E+00   0.00000000000000E+00   0.00000000000000E+00   0.00000000000000E+00
      0.00000000000000E+00   3.43183866189619E-16
      4.17888888888889E-01
      0.00000000000000E+00   0.00000000000000E+00   0.00000000000000E+00   0.00000000000000E+00   1.06737542500863E-20
     -2.04404164774014E-15  -2.04403097398589E-15  -7.40259999585439E-15   0.00000000000000E+00   0.00000000000000E+00
      0.00000000000000E+00   0.00000000000000E+00  -2.21347415060950E-19   1.33432909836295E-23  -2.21334071769966E-19
      2.49738004793338E-15   1.25366666666667E+00   1.25366666666667E+00   0.00000000000000E+00   0.00000000000000E+00
      2.04418900705362E-15   6.33010040444068E-20   2.04425230805766E-15   4.56649885421668E-15   0.00000000000000E+00
      0.00000000000000E+00   0.00000000000000E+00   0.00000000000000E+00   0.00000000000000E+00   0.00000000000000E+00
      0.00000000000000E+00   3.38721093704326E-16
      4.42888888888889E-01
      0.00000000000000E+00   0.00000000000000E+00   0.00000000000000E+00   0.00000000000000E+00   5.15772219025862E-20
     -2.06124927119417E-15  -2.06119769397226E-15  -7.50304160520988E-15   0.00000000000000E+00   0.00000000000000E+00
      0.00000000000000E+00   0.00000000000000E+00  -2.64889917029774E-19   1.06658734302378E-24  -2.64888850442431E-19
      2.49738004793383E-15   1.32866666666667E+00   1.32866666666667E+00   0.00000000000000E+00   0.00000000000000E+00
      2.06132561446808E-15   1.36968354620955E-19   2.06146258282271E-15   4.67141605318742E-15   0.00000000000000E+00
      0.00000000000000E+00   0.00000000000000E+00   0.00000000000000E+00   0.00000000000000E+00   0.00000000000000E+00
      0.00000000000000E+00   3.34245504088608E-16
      4.67888888888889E-01
      0.00000000000000E+00   0.00000000000000E+00   0.00000000000000E+00   0.00000000000000E+00  -1.49275024298858E-19
     -2.07622232958299E-15  -2.07637160460729E-15  -7.60307953207130E-15   0.00000000000000E+00   0.00000000000000E+00
      0.00000000000000E+00   0.00000000000000E+00  -6.35913434844530E-20   1.21770185314755E-23  -6.35791664659215E-20
      2.49738004793379E-15   1.40366666666667E+00   1.40366666666667E+00   0.00000000000000E+00   0.00000000000000E+00
      2.07648948519203E-15  -5.43014182743434E-20   2.07643518377375E-15   4.77594204248113E-15   0.00000000000000E+00
      0.00000000000000E+00   0.00000000000000E+00   0.00000000000000E+00   0.00000000000000E+00   0.00000000000000E+00
      0.00000000000000E+00   3.29757441656356E-16
      4.92888888888889E-01
      0.00000000000000E+00   0.00000000000000E+00   0.00000000000000E+00   0.00000000000000E+00  -1.16922063094169E-19
     -2.09213828560293E-15  -2.09225520766602E-15  -7.70272909811095E-15   0.00000000000000E+00   0.00000000000000E+00
      0.00000000000000E+00   0.00000000000000E+00  -9.42949366640267E-20  -3.37534227851061E-24  -9.42983120063052E-20
      2.49738004793341E-15   1.47866666666667E+00   1.47866666666667E+00   0.00000000000000E+00   0.00000000000000E+00
      2.09231686995866E-15   3.26360193677361E-20   2.09234950597803E-15   4.88009183479635E-15   0.00000000000000E+00
      0.00000000000000E+00   0.00000000000000E+00   0.00000000000000E+00   0.00000000000000E+00   0.00000000000000E+00
      0.00000000000000E+00   3.25257215381173E-16
      5.17888888888889E-01
      0.00000000000000E+00   0.00000000000000E+00   0.00000000000000E+00   0.00000000000000E+00  -1.37037303516650E-19
     -2.11348125767974E-15  -2.11361829498325E-15  -7.80198956772491E-15   0.00000000000000E+00   0.00000000000000E+00
      0.00000000000000E+00   0.00000000000000E+00  -6.39940328163481E-20   2.97819929941299E-24  -6.39910546170487E-20
      2.49738004793354E-15   1.55366666666667E+00   1.55366666666667E+00   0.00000000000000E+00   0.00000000000000E+00
      2.11313217193240E-15   5.50114105463561E-19   2.11368228603787E-15   4.98386442277254E-15   0.00000000000000E+00
      0.00000000000000E+00   0.00000000000000E+00   0.00000000000000E+00   0.00000000000000E+00   0.00000000000000E+00
      0.00000000000000E+00   3.20745097018816E-16
      5.42888888888889E-01
      0.00000000000000E+00   0.00000000000000E+00   0.00000000000000E+00   0.00000000000000E+00  -2.00447962224088E-20
     -2.14467869871457E-15  -2.14469874351080E-15  -7.90084914504398E-15   0.00000000000000E+00   0.00000000000000E+00
      0.00000000000000E+00   0.00000000000000E+00  -1.51149875142942E-19  -1.48578729815817E-24  -1.51151360930240E-19
      2.49738004793346E-15   1.62866666666667E+00   1.62866666666667E+00   0.00000000000000E+00   0.00000000000000E+00
      2.14491608994407E-15  -6.61950723409804E-20   2.14484989487173E-15   5.08724775340133E-15   0.00000000000000E+00
      0.00000000000000E+00   0.00000000000000E+00   0.00000000000000E+00   0.00000000000000E+00   0.00000000000000E+00
      0.00000000000000E+00   3.16221343709178E-16
      5.67888888888889E-01
      0.00000000000000E+00   0.00000000000000E+00   0.00000000000000E+00   0.00000000000000E+00  -5.93673285204596E-20
     -2.19730654772364E-15  -2.19736591505216E-15  -7.99928589162379E-15   0.00000000000000E+00   0.00000000000000E+00
      0.00000000000000E+00   0.00000000000000E+00  -1.51735973263993E-19   2.78308135057923E-24  -1.51733190182643E-19
      2.49738004793320E-15   1.70366666666667E+00   1.70366666666667E+00   0.00000000000000E+00   0.00000000000000E+00
      2.19723217643562E-15   2.85471806723428E-19   2.19751764824234E-15   5.19021961523904E-15   0.00000000000000E+00
      0.00000000000000E+00   0.00000000000000E+00   0.00000000000000E+00   0.00000000000000E+00   0.00000000000000E+00
      0.00000000000000E+00   3.11686228451540E-16
      5.92888888888889E-01
      0.00000000000000E+00   0.00000000000000E+00   0.00000000000000E+00   0.00000000000000E+00  -2.92211503483822E-20
     -2.28182058354078E-15  -2.28184980469113E-15  -8.09726673690010E-15   0.00000000000000E+00   0.00000000000000E+00
      0.00000000000000E+00   0.00000000000000E+00  -1.36633616494662E-19  -5.47715321701949E-24  -1.36639093647880E-19
      2.49738004793345E-15   1.77866666666667E+00   1.77866666666667E+00   0.00000000000000E+00   0.00000000000000E+00
      2.28347701650969E-15  -1.49057272491560E-18   2.28198644378478E-15   5.29274663005927E-15   0.00000000000000E+00
      0.00000000000000E+00   0.00000000000000E+00   0.00000000000000E+00   0.00000000000000E+00   0.00000000000000E+00
      0.00000000000000E+00   3.07140058907372E-16
      6.17888888888889E-01
      0.00000000000000E+00   0.00000000000000E+00   0.00000000000000E+00   0.00000000000000E+00  -9.47848306983562E-20
     -2.41297771010624E-15  -2.41307249493694E-15  -8.19474547142220E-15   0.00000000000000E+00   0.00000000000000E+00
      0.00000000000000E+00   0.00000000000000E+00  -8.16911755613004E-20  -8.35260641501611E-24  -8.16995281677154E-20
      2.49738004793341E-15   1.85366666666667E+00   1.85366666666667E+00   0.00000000000000E+00   0.00000000000000E+00
      2.41314623184477E-15   7.96262032976386E-21   2.41315419446510E-15   5.39478223981515E-15   0.00000000000000E+00
      0.00000000000000E+00   0.00000000000000E+00   0.00000000000000E+00   0.00000000000000E+00   0.00000000000000E+00
      0.00000000000000E+00   3.02583183673618E-16
      6.42888888888889E-01
      0.00000000000000E+00   0.00000000000000E+00   0.00000000000000E+00   0.00000000000000E+00  -7.63810938977010E-20
     -2.57619865706175E-15  -2.57627503815565E-15  -8.29166007545718E-15   0.00000000000000E+00   0.00000000000000E+00
      0.00000000000000E+00   0.00000000000000E+00  -2.29523180064807E-20  -7.07521432413750E-24  -2.29593932208049E-20
      2.49738004793334E-15   1.92866666666667E+00   1.92866666666667E+00   0.00000000000000E+00   0.00000000000000E+00
      2.57636986364271E-15  -7.18660938373158E-20   2.57629799754887E-15   5.49626402790358E-15   0.00000000000000E+00
      0.00000000000000E+00   0.00000000000000E+00   0.00000000000000E+00   0.00000000000000E+00   0.00000000000000E+00
      0.00000000000000E+00   2.98015999620241E-16
      6.67888888888889E-01
      0.00000000000000E+00   0.00000000000000E+00   0.00000000000000E+00   0.00000000000000E+00  -5.75447058067063E-20
     -2.73694152294372E-15  -2.73699906764953E-15  -8.38792883296529E-15   0.00000000000000E+00   0.00000000000000E+00
      0.00000000000000E+00   0.00000000000000E+00  -1.53493989470493E-19   2.09943306138185E-23  -1.53472995139880E-19
      2.49738004793307E-15   2.00366666666667E+00   2.00366666666667E+00   0.00000000000000E+00   0.00000000000000E+00
      2.73710442073477E-15   4.81199099032828E-20   2.73715254064467E-15   5.59710981864114E-15   0.00000000000000E+00
      0.00000000000000E+00   0.00000000000000E+00   0.00000000000000E+00   0.00000000000000E+00   0.00000000000000E+00
      0.00000000000000E+00   2.93438966391086E-16
      6.92888888888889E-01
      0.00000000000000E+00   0.00000000000000E+00   0.00000000000000E+00   0.00000000000000E+00   5.48689342289552E-19
     -2.85508907730006E-15  -2.85454038795777E-15  -8.48344388422835E-15   0.00000000000000E+00   0.00000000000000E+00
      0.00000000000000E+00   0.00000000000000E+00  -2.08511939736511E-19   1.35379366981658E-23  -2.08498401799813E-19
      2.49738004793339E-15   2.07866666666667E+00   2.07866666666667E+00   0.00000000000000E+00   0.00000000000000E+00
      2.85474815463925E-15   7.31720322943302E-22   2.85474888635958E-15   5.69721121835827E-15   0.00000000000000E+00
      0.00000000000000E+00   0.00000000000000E+00   0.00000000000000E+00   0.00000000000000E+00   0.00000000000000E+00
      0.00000000000000E+00   2.88852617936677E-16
      7.17888888888889E-01
      0.00000000000000E+00   0.00000000000000E+00   0.00000000000000E+00   0.00000000000000E+00  -1.48400168183725E-19
     -2.92244997184356E-15  -2.92259837201174E-15  -8.57806147786507E-15   0.00000000000000E+00   0.00000000000000E+00
      0.00000000000000E+00   0.00000000000000E+00  -6.34465098563065E-20  -6.40813914142566E-24  -6.34529179954479E-20
      2.49738004793347E-15   2.15366666666667E+00   2.15366666666667E+00   0.00000000000000E+00   0.00000000000000E+00
      2.92260784336154E-15   5.39815681937027E-20   2.92266182492974E-15   5.79642387274994E-15   0.00000000000000E+00
      0.00000000000000E+00   0.00000000000000E+00   0.00000000000000E+00   0.00000000000000E+00   0.00000000000000E+00
      0.00000000000000E+00   2.84257557181647E-16
      7.42888888888889E-01
      0.00000000000000E+00   0.00000000000000E+00   0.00000000000000E+00   0.00000000000000E+00   1.22817157018801E-20
     -2.95555414727129E-15  -2.95554186555559E-15  -8.67159064153628E-15   0.00000000000000E+00   0.00000000000000E+00
      0.00000000000000E+00   0.00000000000000E+00  -2.25079483020635E-19  -6.87346058507436E-24  -2.25086356481220E-19
      2.49738004793388E-15   2.22866666666667E+00   2.22866666666667E+00   0.00000000000000E+00   0.00000000000000E+00
      2.95577940513914E-15  -1.24532270744218E-20   2.95576695191207E-15   5.89455616219418E-15   0.00000000000000E+00
      0.00000000000000E+00   0.00000000000000E+00   0.00000000000000E+00   0.00000000000000E+00   0.00000000000000E+00
      0.00000000000000E+00   2.79654431408187E-16
      7.67888888888889E-01
      0.00000000000000E+00   0.00000000000000E+00   0.00000000000000E+00   0.00000000000000E+00  -4.78027002504021E-20
     -2.97008036552443E-15  -2.97012816822468E-15  -8.76378605694721E-15   0.00000000000000E+00   0.00000000000000E+00
      0.00000000000000E+00   0.00000000000000E+00  -1.65432588385669E-19   5.00812417125342E-24  -1.65427580261498E-19
      2.49738004793301E-15   2.30366666666667E+00   2.30366666666667E+00   0.00000000000000E+00   0.00000000000000E+00
      2.97242647481887E-15  -2.13287901392735E-18   2.97029359580495E-15   5.99136211117191E-15   0.00000000000000E+00
      0.00000000000000E+00   0.00000000000000E+00   0.00000000000000E+00   0.00000000000000E+00   0.00000000000000E+00
      0.00000000000000E+00   2.75043897842289E-16
      7.92888888888889E-01
      0.00000000000000E+00   0.00000000000000E+00   0.00000000000000E+00   0.00000000000000E+00  -6.10151269908602E-20
     -2.98280875807520E-15  -2.98286977320219E-15  -8.85435707789095E-15   0.00000000000000E+00   0.00000000000000E+00
      0.00000000000000E+00   0.00000000000000E+00  -1.52409554470271E-19  -2.10850193843611E-24  -1.52411662972209E-19
      2.49738004793300E-15   2.37866666666667E+00   2.37866666666667E+00   0.00000000000000E+00   0.00000000000000E+00
      2.98305866654665E-15  -3.64816814942398E-20   2.98302218486516E-15   6.08655043935665E-15   0.00000000000000E+00
      0.00000000000000E+00   0.00000000000000E+00   0.00000000000000E+00   0.00000000000000E+00   0.00000000000000E+00
      0.00000000000000E+00   2.70426590601292E-16
      8.17888888888889E-01
      0.00000000000000E+00   0.00000000000000E+00   0.00000000000000E+00   0.00000000000000E+00  -6.11102873265133E-20
     -2.99259970391167E-15  -2.99266081419900E-15  -8.94301124118409E-15   0.00000000000000E+00   0.00000000000000E+00
      0.00000000000000E+00   0.00000000000000E+00  -1.52501697382126E-19   1.95023804068317E-23  -1.52482195001719E-19
      2.49738004793300E-15   2.45366666666667E+00   2.45366666666667E+00   0.00000000000000E+00   0.00000000000000E+00
      2.99275734262136E-15   5.59537726352025E-20   2.99281329639400E-15   6.17982809897879E-15   0.00000000000000E+00
      0.00000000000000E+00   0.00000000000000E+00   0.00000000000000E+00   0.00000000000000E+00   0.00000000000000E+00
      0.00000000000000E+00   2.65803094272308E-16
      8.42888888888889E-01
      0.00000000000000E+00   0.00000000000000E+00   0.00000000000000E+00   0.00000000000000E+00  -8.91031490398201E-20
     -3.00282613768277E-15  -3.00291524083181E-15  -9.02954490994286E-15   0.00000000000000E+00   0.00000000000000E+00
      0.00000000000000E+00   0.00000000000000E+00  -1.24694154502763E-19   3.41836396359164E-24  -1.24690736138800E-19
      2.49738004793299E-15   2.52866666666667E+00   2.52866666666667E+00   0.00000000000000E+00   0.00000000000000E+00
      3.00297606517729E-15   6.38663906602223E-20   3.00303993156795E-15   6.27099093898026E-15   0.00000000000000E+00
      0.00000000000000E+00   0.00000000000000E+00   0.00000000000000E+00   0.00000000000000E+00   0.00000000000000E+00
      0.00000000000000E+00   2.61173923029607E-16
      8.67888888888889E-01
      0.00000000000000E+00   0.00000000000000E+00   0.00000000000000E+00   0.00000000000000E+00  -1.32920704357870E-19