DF-ISE text

Info {
  version   = 1.0
  type      = xyplot
  datasets  = [
    "time"
    "substrate OuterVoltage" "substrate InnerVoltage" "substrate QuasiFermiPotential" "substrate DisplacementCurrent" "substrate eCurrent"
    "substrate hCurrent" "substrate TotalCurrent" "substrate Charge" "source OuterVoltage" "source InnerVoltage"
    "source QuasiFermiPotential" "source DisplacementCurrent" "source eCurrent" "source hCurrent" "source TotalCurrent"
    "source Charge" "drain OuterVoltage" "drain InnerVoltage" "drain QuasiFermiPotential" "drain DisplacementCurrent"
    "drain eCurrent" "drain hCurrent" "drain TotalCurrent" "drain Charge" "gate OuterVoltage"
    "gate InnerVoltage" "gate QuasiFermiPotential" "gate DisplacementCurrent" "gate eCurrent" "gate hCurrent"
    "gate TotalCurrent" "gate Charge" ]
  functions = [
    Time
    OuterVoltage InnerVoltage QuasiFermiPotential DisplacementCurrent eCurrent
    hCurrent TotalCurrent Charge OuterVoltage InnerVoltage
    QuasiFermiPotential DisplacementCurrent eCurrent hCurrent TotalCurrent
    Charge OuterVoltage InnerVoltage QuasiFermiPotential DisplacementCurrent
    eCurrent hCurrent TotalCurrent Charge OuterVoltage
    InnerVoltage QuasiFermiPotential DisplacementCurrent eCurrent hCurrent
    TotalCurrent Charge ]
}

Data {
      0.00000000000000E+00
      0.00000000000000E+00   0.00000000000000E+00   0.00000000000000E+00   0.00000000000000E+00  -5.38020711803735E-21
      5.87849799672550E-28  -5.38020653018755E-21  -2.41173916432619E-15   0.00000000000000E+00   0.00000000000000E+00
      0.00000000000000E+00   0.00000000000000E+00   2.64886858112381E-21  -4.57439021228098E-28   2.64886812368479E-21
      1.18005227679825E-15   0.00000000000000E+00   0.00000000000000E+00   0.00000000000000E+00   0.00000000000000E+00
      2.73133853683672E-21  -1.30333964187840E-28   2.73133840650276E-21   1.18005227679826E-15   0.00000000000000E+00
      0.00000000000000E+00   0.00000000000000E+00   0.00000000000000E+00   0.00000000000000E+00   0.00000000000000E+00
      0.00000000000000E+00   5.16346107296708E-17
      1.00000000000000E-02
      0.00000000000000E+00   0.00000000000000E+00   0.00000000000000E+00   0.00000000000000E+00   4.18385605531450E-18
     -2.17035042037942E-17  -1.75196481484797E-17  -2.43802048026541E-15   0.00000000000000E+00   0.00000000000000E+00
      0.00000000000000E+00   0.00000000000000E+00  -1.79618002829211E-19   3.15496705125829E-28  -1.79618002513714E-19
      1.18005227679115E-15   3.00000000000000E-02   3.00000000000000E-02   0.00000000000000E+00   0.00000000000000E+00
      1.76845192973454E-17   1.47468536480398E-20   1.76992661509934E-17   1.20988658133754E-15   0.00000000000000E+00
      0.00000000000000E+00   0.00000000000000E+00   0.00000000000000E+00   0.00000000000000E+00   0.00000000000000E+00
      0.00000000000000E+00   4.80816221367169E-17
      2.33333333333333E-02
      0.00000000000000E+00   0.00000000000000E+00   0.00000000000000E+00   0.00000000000000E+00   8.68666905083297E-18
     -4.18175160579087E-17  -3.31308470070757E-17  -2.47281218297982E-15   0.00000000000000E+00   0.00000000000000E+00
      0.00000000000000E+00   0.00000000000000E+00  -2.39469618721733E-19  -1.02774988544731E-28  -2.39469618824508E-19
      1.18005227678125E-15   7.00000000000000E-02   7.00000000000000E-02   0.00000000000000E+00   0.00000000000000E+00
      3.33454404761012E-17   2.48761497990486E-20   3.33703166259002E-17   1.24942023038396E-15   0.00000000000000E+00
      0.00000000000000E+00   0.00000000000000E+00   0.00000000000000E+00   0.00000000000000E+00   0.00000000000000E+00
      0.00000000000000E+00   4.33396758146163E-17
      4.28888888888889E-02
      0.00000000000000E+00   0.00000000000000E+00   0.00000000000000E+00   0.00000000000000E+00  -3.41667396218481E-20
     -6.80177531618850E-17  -6.80519199015069E-17  -2.52336814042877E-15   0.00000000000000E+00   0.00000000000000E+00
      0.00000000000000E+00   0.00000000000000E+00  -2.43267795226415E-19  -9.49037842733170E-28  -2.43267796175452E-19
      1.18005227676574E-15   1.28666666666667E-01   1.28666666666667E-01   0.00000000000000E+00   0.00000000000000E+00
      6.82707464203981E-17   2.44412772841964E-20   6.82951876976823E-17   1.30694025633027E-15   0.00000000000000E+00
      0.00000000000000E+00   0.00000000000000E+00   0.00000000000000E+00   0.00000000000000E+00   0.00000000000000E+00
      0.00000000000000E+00   3.63756073327587E-17
      6.78888888888889E-02
      0.00000000000000E+00   0.00000000000000E+00   0.00000000000000E+00   0.00000000000000E+00  -3.19771478361287E-20
     -1.08147355409275E-16  -1.08179332557111E-16  -2.58722891905674E-15   0.00000000000000E+00   0.00000000000000E+00
      0.00000000000000E+00   0.00000000000000E+00  -2.46090113064599E-19  -8.41559145279556E-28  -2.46090113906158E-19
      1.18005227674418E-15   2.03666666666667E-01   2.03666666666667E-01   0.00000000000000E+00   0.00000000000000E+00
      1.08402653536807E-16   2.27691342103926E-20   1.08425422671017E-16   1.37971959675296E-15   0.00000000000000E+00
      0.00000000000000E+00   0.00000000000000E+00   0.00000000000000E+00   0.00000000000000E+00   0.00000000000000E+00
      0.00000000000000E+00   2.74570455596044E-17
      9.28888888888889E-02
      0.00000000000000E+00   0.00000000000000E+00   0.00000000000000E+00   0.00000000000000E+00  -3.38907656416604E-20
     -1.66117131432136E-16  -1.66151022197778E-16  -2.65023862082376E-15   0.00000000000000E+00   0.00000000000000E+00
      0.00000000000000E+00   0.00000000000000E+00  -2.45569491710759E-19  -1.59027390193395E-27  -2.45569493301033E-19
      1.18005227672050E-15   2.78666666666667E-01   2.78666666666667E-01   0.00000000000000E+00   0.00000000000000E+00
      1.66351155064520E-16   4.54366265592049E-20   1.66396591691079E-16   1.45166563392164E-15   0.00000000000000E+00
      0.00000000000000E+00   0.00000000000000E+00   0.00000000000000E+00   0.00000000000000E+00   0.00000000000000E+00
      0.00000000000000E+00   1.85207101816216E-17
      1.17888888888889E-01
      0.00000000000000E+00   0.00000000000000E+00   0.00000000000000E+00   0.00000000000000E+00  -3.37673810898518E-20
     -2.46679182823965E-16  -2.46712950205055E-16  -2.71238097210526E-15   0.00000000000000E+00   0.00000000000000E+00
      0.00000000000000E+00   0.00000000000000E+00  -2.47116549858049E-19   5.56445138353361E-28  -2.47116549301604E-19
      1.18005227669452E-15   3.53666666666667E-01   3.53666666666667E-01   0.00000000000000E+00   0.00000000000000E+00
      2.46856046876976E-16   1.04019877379542E-19   2.46960066754356E-16   1.52276286038302E-15   0.00000000000000E+00
      0.00000000000000E+00   0.00000000000000E+00   0.00000000000000E+00   0.00000000000000E+00   0.00000000000000E+00
      0.00000000000000E+00   9.56583502771816E-18
      1.42888888888889E-01
      0.00000000000000E+00   0.00000000000000E+00   0.00000000000000E+00   0.00000000000000E+00  -2.88790905592460E-20
     -3.37173894901187E-16  -3.37202773991746E-16  -2.77360755399484E-15   0.00000000000000E+00   0.00000000000000E+00
      0.00000000000000E+00   0.00000000000000E+00  -2.49214367352955E-19   4.06094206894922E-28  -2.49214366946861E-19
      1.18005227666608E-15   4.28666666666667E-01   4.28666666666667E-01   0.00000000000000E+00   0.00000000000000E+00
      3.37415972990221E-16   3.60153684721758E-20   3.37451988358693E-16   1.59296384122772E-15   0.00000000000000E+00
      0.00000000000000E+00   0.00000000000000E+00   0.00000000000000E+00   0.00000000000000E+00   0.00000000000000E+00
      0.00000000000000E+00   5.91436101043145E-19
      1.67888888888889E-01
      0.00000000000000E+00   0.00000000000000E+00   0.00000000000000E+00   0.00000000000000E+00  -3.29381562739969E-20
     -4.25382752752239E-16  -4.25415690908513E-16  -2.83381957732649E-15   0.00000000000000E+00   0.00000000000000E+00
      0.00000000000000E+00   0.00000000000000E+00  -2.50206855452315E-19   4.10657128644052E-28  -2.50206855041658E-19
      1.18005227663501E-15   5.03666666666667E-01   5.03666666666667E-01   0.00000000000000E+00   0.00000000000000E+00
      4.25475218008834E-16   1.90679754721010E-19   4.25665897763555E-16   1.66217070659823E-15   0.00000000000000E+00
      0.00000000000000E+00   0.00000000000000E+00   0.00000000000000E+00   0.00000000000000E+00   0.00000000000000E+00
      0.00000000000000E+00  -8.40340590675078E-18
      1.92888888888889E-01
      0.00000000000000E+00   0.00000000000000E+00   0.00000000000000E+00   0.00000000000000E+00  -3.30818641373237E-20
     -5.20609324902319E-16  -5.20642406766456E-16  -2.89285118634430E-15   0.00000000000000E+00   0.00000000000000E+00
      0.00000000000000E+00   0.00000000000000E+00  -2.52173860700806E-19   1.29558412456881E-27  -2.52173859405222E-19
      1.18005227660111E-15   5.78666666666667E-01   5.78666666666667E-01   0.00000000000000E+00   0.00000000000000E+00
      5.20794084577884E-16   1.00496047976409E-19   5.20894580625860E-16   1.73021822791834E-15   0.00000000000000E+00
      0.00000000000000E+00   0.00000000000000E+00   0.00000000000000E+00   0.00000000000000E+00   0.00000000000000E+00
      0.00000000000000E+00  -1.74193181751522E-17
      2.17888888888889E-01
      0.00000000000000E+00   0.00000000000000E+00   0.00000000000000E+00   0.00000000000000E+00  -3.47577148518589E-20
     -6.18274006864399E-16  -6.18308764579250E-16  -2.95046888556908E-15   0.00000000000000E+00   0.00000000000000E+00
      0.00000000000000E+00   0.00000000000000E+00  -2.51883100436381E-19   1.13445614261922E-27  -2.51883099301925E-19
      1.18005227656425E-15   6.53666666666667E-01   6.53666666666667E-01   0.00000000000000E+00   0.00000000000000E+00
      6.18537721191599E-16   2.29264869544787E-20   6.18560647678553E-16   1.79687307939825E-15   0.00000000000000E+00
      0.00000000000000E+00   0.00000000000000E+00   0.00000000000000E+00   0.00000000000000E+00   0.00000000000000E+00
      0.00000000000000E+00  -2.64564703934064E-17
      2.42888888888889E-01
      0.00000000000000E+00   0.00000000000000E+00   0.00000000000000E+00   0.00000000000000E+00  -3.65639364776811E-20
     -6.86222022207304E-16  -6.86258586143782E-16  -3.00641235682241E-15   0.00000000000000E+00   0.00000000000000E+00
      0.00000000000000E+00   0.00000000000000E+00  -2.51201161643633E-19  -4.24020130851063E-28  -2.51201162067653E-19
      1.18005227652429E-15   7.28666666666667E-01   7.28666666666667E-01   0.00000000000000E+00   0.00000000000000E+00
      6.86754454863954E-16  -2.44667558104272E-19   6.86509787305850E-16   1.86187457243217E-15   0.00000000000000E+00
      0.00000000000000E+00   0.00000000000000E+00   0.00000000000000E+00   0.00000000000000E+00   0.00000000000000E+00
      0.00000000000000E+00  -3.55144921340597E-17
      2.67888888888889E-01
      0.00000000000000E+00   0.00000000000000E+00   0.00000000000000E+00   0.00000000000000E+00  -3.59704568461836E-20
     -7.24677592516545E-16  -7.24713562973391E-16  -3.06051249594789E-15   0.00000000000000E+00   0.00000000000000E+00
      0.00000000000000E+00   0.00000000000000E+00  -2.52834810631795E-19  -4.56345609587796E-28  -2.52834811088140E-19
      1.18005227648113E-15   8.03666666666667E-01   8.03666666666667E-01   0.00000000000000E+00   0.00000000000000E+00
      7.26064345164797E-16  -1.09794738031779E-18   7.24966397784479E-16   1.92505269405792E-15   0.00000000000000E+00
      0.00000000000000E+00   0.00000000000000E+00   0.00000000000000E+00   0.00000000000000E+00   0.00000000000000E+00
      0.00000000000000E+00  -4.45924745911580E-17
      2.92888888888889E-01
      0.00000000000000E+00   0.00000000000000E+00   0.00000000000000E+00   0.00000000000000E+00  -3.51788959203754E-20
     -7.49060897800458E-16  -7.49096076696378E-16  -3.11284542716625E-15   0.00000000000000E+00   0.00000000000000E+00
      0.00000000000000E+00   0.00000000000000E+00  -2.55269768851168E-19  -1.01094306973331E-27  -2.55269769862111E-19
      1.18005227643467E-15   8.78666666666667E-01   8.78666666666667E-01   0.00000000000000E+00   0.00000000000000E+00
      7.49327592101062E-16   2.37543651788513E-20   7.49351346466240E-16   1.98648218420325E-15   0.00000000000000E+00
      0.00000000000000E+00   0.00000000000000E+00   0.00000000000000E+00   0.00000000000000E+00   0.00000000000000E+00
      0.00000000000000E+00  -5.36890334716643E-17
      3.17888888888889E-01
      0.00000000000000E+00   0.00000000000000E+00   0.00000000000000E+00   0.00000000000000E+00  -3.37309479399014E-20
     -7.65284927527162E-16  -7.65318658475102E-16  -3.16374354259351E-15   0.00000000000000E+00   0.00000000000000E+00
      0.00000000000000E+00   0.00000000000000E+00  -2.57975684947559E-19  -4.62952314115679E-28  -2.57975685410511E-19
      1.18005227638480E-15   9.53666666666667E-01   9.53666666666667E-01   0.00000000000000E+00   0.00000000000000E+00
      7.64174293287805E-16   1.40234087270619E-18   7.65576634160512E-16   2.04649367193594E-15   0.00000000000000E+00
      0.00000000000000E+00   0.00000000000000E+00   0.00000000000000E+00   0.00000000000000E+00   0.00000000000000E+00
      0.00000000000000E+00  -6.28024057272297E-17
      3.42888888888889E-01
      0.00000000000000E+00   0.00000000000000E+00   0.00000000000000E+00   0.00000000000000E+00  -3.46082975873644E-20
     -7.76074075618949E-16  -7.76108683916536E-16  -3.21361619786185E-15   0.00000000000000E+00   0.00000000000000E+00
      0.00000000000000E+00   0.00000000000000E+00  -2.58989500340669E-19   6.32758423016824E-28  -2.58989499707911E-19
      1.18005227633145E-15   1.02866666666667E+00   1.02866666666667E+00   0.00000000000000E+00   0.00000000000000E+00
      7.76295176897953E-16   7.24965182901197E-20   7.76367673416244E-16   2.10549448922299E-15   0.00000000000000E+00
      0.00000000000000E+00   0.00000000000000E+00   0.00000000000000E+00   0.00000000000000E+00   0.00000000000000E+00
      0.00000000000000E+00  -7.19305676925910E-17
      3.67888888888889E-01
      0.00000000000000E+00   0.00000000000000E+00   0.00000000000000E+00   0.00000000000000E+00  -3.69262738030804E-20
     -7.87594209096483E-16  -7.87631135370286E-16  -3.26279001262269E-15   0.00000000000000E+00   0.00000000000000E+00
      0.00000000000000E+00   0.00000000000000E+00  -2.57231589559279E-19   5.90493077896290E-28  -2.57231588968786E-19
      1.18005227627454E-15   1.10366666666667E+00   1.10366666666667E+00   0.00000000000000E+00   0.00000000000000E+00
      7.87857262901184E-16   3.11040580712041E-20   7.87888366959256E-16   2.16380911063495E-15   0.00000000000000E+00
      0.00000000000000E+00   0.00000000000000E+00   0.00000000000000E+00   0.00000000000000E+00   0.00000000000000E+00
      0.00000000000000E+00  -8.10713742868083E-17
      3.92888888888889E-01
      0.00000000000000E+00   0.00000000000000E+00   0.00000000000000E+00   0.00000000000000E+00  -3.38295613698174E-20
     -7.97896938062702E-16  -7.97930767624072E-16  -3.31147256583059E-15   0.00000000000000E+00   0.00000000000000E+00
      0.00000000000000E+00   0.00000000000000E+00  -2.61418333091725E-19   1.16494091529409E-27  -2.61418331926785E-19
      1.18005227621399E-15   1.17866666666667E+00   1.17866666666667E+00   0.00000000000000E+00   0.00000000000000E+00
      7.98644343910346E-16  -4.52157954347484E-19   7.98192185955998E-16   2.22164300428020E-15   0.00000000000000E+00
      0.00000000000000E+00   0.00000000000000E+00   0.00000000000000E+00   0.00000000000000E+00   0.00000000000000E+00
      0.00000000000000E+00  -9.02227146636022E-17
      4.17888888888889E-01
      0.00000000000000E+00   0.00000000000000E+00   0.00000000000000E+00   0.00000000000000E+00  -3.16915658081915E-20
     -8.08410180510695E-16  -8.08441872076503E-16  -3.35977857111856E-15   0.00000000000000E+00   0.00000000000000E+00
      0.00000000000000E+00   0.00000000000000E+00  -2.61362353255147E-19   4.11611844914383E-28  -2.61362352843535E-19
      1.18005227614984E-15   1.25366666666667E+00   1.25366666666667E+00   0.00000000000000E+00   0.00000000000000E+00
      8.07320207649772E-16   1.38302677957451E-18   8.08703234429347E-16   2.27910896478585E-15   0.00000000000000E+00
      0.00000000000000E+00   0.00000000000000E+00   0.00000000000000E+00   0.00000000000000E+00   0.00000000000000E+00
      0.00000000000000E+00  -9.93826698171299E-17
      4.42888888888889E-01
      0.00000000000000E+00   0.00000000000000E+00   0.00000000000000E+00   0.00000000000000E+00  -2.82853872692226E-20
     -8.13363514777649E-16  -8.13391800164918E-16  -3.40776424656985E-15   0.00000000000000E+00   0.00000000000000E+00
      0.00000000000000E+00   0.00000000000000E+00  -2.62808097075529E-19   1.32714954181822E-27  -2.62808095748380E-19
      1.18005227608186E-15   1.32866666666667E+00   1.32866666666667E+00   0.00000000000000E+00   0.00000000000000E+00
      8.14101725382004E-16  -4.47117121337994E-19   8.13654608260666E-16   2.33626162871844E-15   0.00000000000000E+00
      0.00000000000000E+00   0.00000000000000E+00   0.00000000000000E+00   0.00000000000000E+00   0.00000000000000E+00
      0.00000000000000E+00  -1.08549658230452E-16
      4.67888888888889E-01
      0.00000000000000E+00   0.00000000000000E+00   0.00000000000000E+00   0.00000000000000E+00  -1.86604970223516E-20
     -8.20237058661802E-16  -8.20255719158824E-16  -3.45545334025986E-15   0.00000000000000E+00   0.00000000000000E+00
      0.00000000000000E+00   0.00000000000000E+00  -2.61720642528550E-19  -9.10207967711770E-28  -2.61720643438758E-19
      1.18005227600972E-15   1.40366666666667E+00   1.40366666666667E+00   0.00000000000000E+00   0.00000000000000E+00
      8.21151795685361E-16  -6.34355883099100E-19   8.20517439802262E-16   2.39312362548146E-15   0.00000000000000E+00
      0.00000000000000E+00   0.00000000000000E+00   0.00000000000000E+00   0.00000000000000E+00   0.00000000000000E+00
      0.00000000000000E+00  -1.17722561231334E-16
      4.92888888888889E-01
      0.00000000000000E+00   0.00000000000000E+00   0.00000000000000E+00   0.00000000000000E+00  -3.68064536755454E-20
     -8.29819322355683E-16  -8.29856128809358E-16  -3.50285396333148E-15   0.00000000000000E+00   0.00000000000000E+00
      0.00000000000000E+00   0.00000000000000E+00  -2.63105661552316E-19  -5.76965125594649E-28  -2.63105662129281E-19
      1.18005227593287E-15   1.47866666666667E+00   1.47866666666667E+00   0.00000000000000E+00   0.00000000000000E+00
      8.30096268647943E-16   2.29658235450702E-20   8.30119234471488E-16   2.44970250263146E-15   0.00000000000000E+00
      0.00000000000000E+00   0.00000000000000E+00   0.00000000000000E+00   0.00000000000000E+00   0.00000000000000E+00
      0.00000000000000E+00  -1.26900815232854E-16
      5.17888888888889E-01
      0.00000000000000E+00   0.00000000000000E+00   0.00000000000000E+00   0.00000000000000E+00  -3.70145084625862E-20
     -8.39853561694277E-16  -8.39890576202740E-16  -3.54996892817929E-15   0.00000000000000E+00   0.00000000000000E+00
      0.00000000000000E+00   0.00000000000000E+00  -2.63990037236512E-19  -5.65041698860639E-28  -2.63990037801553E-19
      1.18005227585199E-15   1.55366666666667E+00   1.55366666666667E+00   0.00000000000000E+00   0.00000000000000E+00
      8.40100346626992E-16   5.42196135495093E-20   8.40154566240541E-16   2.50600109807907E-15   0.00000000000000E+00
      0.00000000000000E+00   0.00000000000000E+00   0.00000000000000E+00   0.00000000000000E+00   0.00000000000000E+00
      0.00000000000000E+00  -1.36084445751770E-16
      5.42888888888889E-01
      0.00000000000000E+00   0.00000000000000E+00   0.00000000000000E+00   0.00000000000000E+00  -3.35101000603933E-20
     -8.50077838929090E-16  -8.50111349029150E-16  -3.59680138531584E-15   0.00000000000000E+00   0.00000000000000E+00
      0.00000000000000E+00   0.00000000000000E+00  -2.68568366470187E-19   9.65537919611458E-29  -2.68568366373633E-19
      1.18005227576639E-15   1.62866666666667E+00   1.62866666666667E+00   0.00000000000000E+00   0.00000000000000E+00
      8.50235096880309E-16   1.44820515216119E-19   8.50379917395525E-16   2.56202312898373E-15   0.00000000000000E+00
      0.00000000000000E+00   0.00000000000000E+00   0.00000000000000E+00   0.00000000000000E+00   0.00000000000000E+00
      0.00000000000000E+00  -1.45274019434296E-16
      5.67888888888889E-01
      0.00000000000000E+00   0.00000000000000E+00   0.00000000000000E+00   0.00000000000000E+00   2.32847555064857E-20
     -8.61709109391281E-16  -8.61685824635775E-16  -3.64335624290293E-15   0.00000000000000E+00   0.00000000000000E+00
      0.00000000000000E+00   0.00000000000000E+00  -2.65094895667937E-19   1.86579234474190E-28  -2.65094895481358E-19
      1.18005227567570E-15   1.70366666666667E+00   1.70366666666667E+00   0.00000000000000E+00   0.00000000000000E+00
      8.63003167587631E-16  -1.05224805637456E-18   8.61950919531257E-16   2.61777448422292E-15   0.00000000000000E+00
      0.00000000000000E+00   0.00000000000000E+00   0.00000000000000E+00   0.00000000000000E+00   0.00000000000000E+00
      0.00000000000000E+00  -1.54470516995691E-16
      5.92888888888889E-01
      0.00000000000000E+00   0.00000000000000E+00   0.00000000000000E+00   0.00000000000000E+00   7.62927779303960E-20
     -8.83014203560282E-16  -8.82937910782352E-16  -3.68963807368271E-15   0.00000000000000E+00   0.00000000000000E+00
      0.00000000000000E+00   0.00000000000000E+00  -2.66484549082656E-19   1.39411471334489E-27  -2.66484547688542E-19
      1.18005227557978E-15   1.77866666666667E+00   1.77866666666667E+00   0.00000000000000E+00   0.00000000000000E+00
      8.84074140718775E-16  -8.69745388734859E-19   8.83204395330040E-16   2.67326096101057E-15   0.00000000000000E+00
      0.00000000000000E+00   0.00000000000000E+00   0.00000000000000E+00   0.00000000000000E+00   0.00000000000000E+00
      0.00000000000000E+00  -1.63675162907650E-16
      6.17888888888889E-01
      0.00000000000000E+00   0.00000000000000E+00   0.00000000000000E+00   0.00000000000000E+00  -4.01300338077756E-20
     -9.20992025969517E-16  -9.21032156003325E-16  -3.73564736146935E-15   0.00000000000000E+00   0.00000000000000E+00
      0.00000000000000E+00   0.00000000000000E+00  -2.67238712731516E-19   3.78494620922383E-28  -2.67238712353021E-19
      1.18005227547821E-15   1.85366666666667E+00   1.85366666666667E+00   0.00000000000000E+00   0.00000000000000E+00
      9.20167639433101E-16   1.13175528257683E-18   9.21299394715678E-16   2.72848434421591E-15   0.00000000000000E+00
      0.00000000000000E+00   0.00000000000000E+00   0.00000000000000E+00   0.00000000000000E+00   0.00000000000000E+00
      0.00000000000000E+00  -1.72889258224775E-16
      6.42888888888889E-01
      0.00000000000000E+00   0.00000000000000E+00   0.00000000000000E+00   0.00000000000000E+00  -3.16241424121672E-20
     -9.73693166575494E-16  -9.73724790717906E-16  -3.78137702290729E-15   0.00000000000000E+00   0.00000000000000E+00
      0.00000000000000E+00   0.00000000000000E+00  -2.70470798386907E-19  -7.93118632549117E-28  -2.70470799180025E-19
      1.18005227537059E-15   1.92866666666667E+00   1.92866666666667E+00   0.00000000000000E+00   0.00000000000000E+00
      9.72330320015622E-16   1.66494150146462E-18   9.73995261517087E-16   2.78343879593935E-15   0.00000000000000E+00
      0.00000000000000E+00   0.00000000000000E+00   0.00000000000000E+00   0.00000000000000E+00   0.00000000000000E+00
      0.00000000000000E+00  -1.82114048402652E-16
      6.67888888888889E-01
      0.00000000000000E+00   0.00000000000000E+00   0.00000000000000E+00   0.00000000000000E+00  -4.13346553053873E-20
     -1.02722676170126E-15  -1.02726809635656E-15  -3.82680987445015E-15   0.00000000000000E+00   0.00000000000000E+00
      0.00000000000000E+00   0.00000000000000E+00  -2.72930035421186E-19  -7.39086262819739E-28  -2.72930036160272E-19
      1.18005227525661E-15   2.00366666666667E+00   2.00366666666667E+00   0.00000000000000E+00   0.00000000000000E+00
      1.02811500456044E-15  -5.73978167714160E-19   1.02754102639272E-15   2.83810823540933E-15   0.00000000000000E+00
      0.00000000000000E+00   0.00000000000000E+00   0.00000000000000E+00   0.00000000000000E+00   0.00000000000000E+00
      0.00000000000000E+00  -1.91350636215786E-16
      6.92888888888889E-01
      0.00000000000000E+00   0.00000000000000E+00   0.00000000000000E+00   0.00000000000000E+00  -3.76564719146462E-20
     -1.07119241820890E-15  -1.07123007468082E-15  -3.87191658489903E-15   0.00000000000000E+00   0.00000000000000E+00
      0.00000000000000E+00   0.00000000000000E+00  -2.70296725732852E-19   1.32852778007687E-27  -2.70296724404324E-19
      1.18005227513592E-15   2.07866666666667E+00   2.07866666666667E+00   0.00000000000000E+00   0.00000000000000E+00
      1.07147720162000E-15   2.31697852241034E-20   1.07150037140522E-15   2.89246424388580E-15   0.00000000000000E+00
      0.00000000000000E+00   0.00000000000000E+00   0.00000000000000E+00   0.00000000000000E+00   0.00000000000000E+00
      0.00000000000000E+00  -2.00599934122693E-16
      7.17888888888889E-01
      0.00000000000000E+00   0.00000000000000E+00   0.00000000000000E+00   0.00000000000000E+00  -3.06838536079249E-20
     -1.10013969491752E-15  -1.10017037877113E-15  -3.91665345189815E-15   0.00000000000000E+00   0.00000000000000E+00
      0.00000000000000E+00   0.00000000000000E+00  -2.74832173185235E-19   8.47331309901233E-29  -2.74832173100502E-19
      1.18005227500825E-15   2.15366666666667E+00   2.15366666666667E+00   0.00000000000000E+00   0.00000000000000E+00
      1.10041254275782E-15   3.26681864067525E-20   1.10044521094423E-15   2.94646382009012E-15   0.00000000000000E+00
      0.00000000000000E+00   0.00000000000000E+00   0.00000000000000E+00   0.00000000000000E+00   0.00000000000000E+00
      0.00000000000000E+00  -2.09862643200212E-16
      7.42888888888889E-01
      0.00000000000000E+00   0.00000000000000E+00   0.00000000000000E+00   0.00000000000000E+00  -3.06989885081525E-20
     -1.12099888975390E-15  -1.12102958874241E-15  -3.96095981072398E-15   0.00000000000000E+00   0.00000000000000E+00
      0.00000000000000E+00   0.00000000000000E+00  -2.75518104803183E-19   8.30589286508533E-29  -2.75518104720124E-19
      1.18005227487331E-15   2.22866666666667E+00   2.22866666666667E+00   0.00000000000000E+00   0.00000000000000E+00
      1.12128285456819E-15   2.22522789344359E-20   1.12130510684712E-15   3.00004678136981E-15   0.00000000000000E+00
      0.00000000000000E+00   0.00000000000000E+00   0.00000000000000E+00   0.00000000000000E+00   0.00000000000000E+00
      0.00000000000000E+00  -2.19139245519139E-16
      7.67888888888889E-01
      0.00000000000000E+00   0.00000000000000E+00   0.00000000000000E+00   0.00000000000000E+00  -3.68131087486929E-20
     -1.13817606164134E-15  -1.13821287475009E-15  -4.00475590174019E-15   0.00000000000000E+00   0.00000000000000E+00
      0.00000000000000E+00   0.00000000000000E+00  -2.74008411293448E-19  -7.74822552747629E-28  -2.74008412068271E-19
      1.18005227472950E-15   2.30366666666667E+00   2.30366666666667E+00   0.00000000000000E+00   0.00000000000000E+00
      1.13808791752082E-15   3.98965641341617E-19   1.13848688316216E-15   3.05313362804033E-15   0.00000000000000E+00
      0.00000000000000E+00   0.00000000000000E+00   0.00000000000000E+00   0.00000000000000E+00   0.00000000000000E+00
      0.00000000000000E+00  -2.28430001029642E-16
      7.92888888888889E-01
      0.00000000000000E+00   0.00000000000000E+00   0.00000000000000E+00   0.00000000000000E+00  -3.78986447476645E-20
     -1.15134052368944E-15  -1.15137842233419E-15  -4.04794409475624E-15   0.00000000000000E+00   0.00000000000000E+00
      0.00000000000000E+00   0.00000000000000E+00  -2.74462630693945E-19   1.70557381164815E-28  -2.74462630523388E-19
      1.18005227457840E-15   2.37866666666667E+00   2.37866666666667E+00   0.00000000000000E+00   0.00000000000000E+00
      1.15159930145739E-15   5.35835073271160E-20   1.15165288496471E-15   3.10562676599901E-15   0.00000000000000E+00
      0.00000000000000E+00   0.00000000000000E+00   0.00000000000000E+00   0.00000000000000E+00   0.00000000000000E+00
      0.00000000000000E+00  -2.37734945821167E-16
      8.17888888888889E-01
      0.00000000000000E+00   0.00000000000000E+00   0.00000000000000E+00   0.00000000000000E+00  -3.82791170970618E-20
     -1.16247645671728E-15  -1.16251473583438E-15  -4.09041985166311E-15   0.00000000000000E+00   0.00000000000000E+00
      0.00000000000000E+00   0.00000000000000E+00  -2.75136198582286E-19   7.87220818560984E-28  -2.75136197795065E-19
      1.18005227441896E-15   2.45366666666667E+00   2.45366666666667E+00   0.00000000000000E+00   0.00000000000000E+00
      1.16276686330661E-15   2.30087255616591E-20   1.16278987203217E-15   3.15742147057583E-15   0.00000000000000E+00
      0.00000000000000E+00   0.00000000000000E+00   0.00000000000000E+00   0.00000000000000E+00   0.00000000000000E+00
      0.00000000000000E+00  -2.47053893331690E-16
      8.42888888888889E-01
      0.00000000000000E+00   0.00000000000000E+00   0.00000000000000E+00   0.00000000000000E+00  -3.44363058581588E-20
     -1.17279443987465E-15  -1.17282887618051E-15  -4.13210047785325E-15   0.00000000000000E+00   0.00000000000000E+00
      0.00000000000000E+00   0.00000000000000E+00  -2.79835553675733E-19   3.04269936472660E-28  -2.79835553371463E-19
      1.18005227425094E-15   2.52866666666667E+00   2.52866666666667E+00   0.00000000000000E+00   0.00000000000000E+00
      1.17296675823735E-15   1.41953496534595E-19   1.17310871173389E-15   3.20843464593259E-15   0.00000000000000E+00
      0.00000000000000E+00   0.00000000000000E+00   0.00000000000000E+00   0.00000000000000E+00   0.00000000000000E+00
      0.00000000000000E+00  -2.56386442330279E-16
      8.67888888888889E-01
      0.00000000000000E+00   0.00000000000000E+00   0.00000000000000E+00   0.00000000000000E+00  -3.60677716722625E-20