DF-ISE text

Info {
  version   = 1.0
  type      = xyplot
  datasets  = [
    "time"
    "substrate OuterVoltage" "substrate InnerVoltage" "substrate QuasiFermiPotential" "substrate DisplacementCurrent" "substrate eCurrent"
    "substrate hCurrent" "substrate TotalCurrent" "substrate Charge" "source OuterVoltage" "source InnerVoltage"
    "source QuasiFermiPotential" "source DisplacementCurrent" "source eCurrent" "source hCurrent" "source TotalCurrent"
    "source Charge" "drain OuterVoltage" "drain InnerVoltage" "drain QuasiFermiPotential" "drain DisplacementCurrent"
    "drain eCurrent" "drain hCurrent" "drain TotalCurrent" "drain Charge" "gate OuterVoltage"
    "gate InnerVoltage" "gate QuasiFermiPotential" "gate DisplacementCurrent" "gate eCurrent" "gate hCurrent"
    "gate TotalCurrent" "gate Charge" ]
  functions = [
    Time
    OuterVoltage InnerVoltage QuasiFermiPotential DisplacementCurrent eCurrent
    hCurrent TotalCurrent Charge OuterVoltage InnerVoltage
    QuasiFermiPotential DisplacementCurrent eCurrent hCurrent TotalCurrent
    Charge OuterVoltage InnerVoltage QuasiFermiPotential DisplacementCurrent
    eCurrent hCurrent TotalCurrent Charge OuterVoltage
    InnerVoltage QuasiFermiPotential DisplacementCurrent eCurrent hCurrent
    TotalCurrent Charge ]
}

Data {
      0.00000000000000E+00
      0.00000000000000E+00   0.00000000000000E+00   0.00000000000000E+00   0.00000000000000E+00  -5.27560784681699E-20
     -4.49664302795310E-22  -5.32057427709652E-20  -5.07038061790486E-15   0.00000000000000E+00   0.00000000000000E+00
      0.00000000000000E+00   0.00000000000000E+00   2.63694762062585E-20   2.23438403876866E-22   2.65929146101354E-20
      2.34253622672606E-15   0.00000000000000E+00   0.00000000000000E+00   0.00000000000000E+00   0.00000000000000E+00
      2.63866022622580E-20   2.26225898571907E-22   2.66128281608299E-20   2.34253622672606E-15   0.00000000000000E+00
      0.00000000000000E+00   0.00000000000000E+00   0.00000000000000E+00   0.00000000000000E+00   0.00000000000000E+00
      0.00000000000000E+00   3.85308164452741E-16
      0.00000000000000E+00
      0.00000000000000E+00   0.00000000000000E+00   0.00000000000000E+00   0.00000000000000E+00   5.02103707471590E-20
      1.12281496337811E-23   5.02215988967928E-20  -5.07038061790357E-15   0.00000000000000E+00   0.00000000000000E+00
      0.00000000000000E+00   0.00000000000000E+00  -2.50922763766697E-20  -7.63461820355327E-24  -2.50999109948733E-20
      2.34253622672542E-15   0.00000000000000E+00   0.00000000000000E+00   0.00000000000000E+00   0.00000000000000E+00
     -2.51180943709160E-20  -3.59353100349179E-24  -2.51216879019195E-20   2.34253622672542E-15   0.00000000000000E+00
      0.00000000000000E+00   0.00000000000000E+00   0.00000000000000E+00   0.00000000000000E+00   0.00000000000000E+00
      0.00000000000000E+00   3.85308164452739E-16
      1.00000000000000E-01
      0.00000000000000E+00   0.00000000000000E+00   0.00000000000000E+00   0.00000000000000E+00  -1.17217649575632E-19
      2.02299601819278E-24  -1.17215626579614E-19  -5.35532552410941E-15   0.00000000000000E+00   0.00000000000000E+00
      0.00000000000000E+00   0.00000000000000E+00   3.07724249151920E-20  -7.43131835189434E-25   3.07716817833568E-20
      2.32204711460623E-15   0.00000000000000E+00   0.00000000000000E+00   0.00000000000000E+00   0.00000000000000E+00
      8.64452246581628E-20  -1.27986190537321E-24   8.64439447962575E-20   2.32204711460623E-15   3.00000000000000E-01
      3.00000000000000E-01   0.00000000000000E+00   0.00000000000000E+00   0.00000000000000E+00   0.00000000000000E+00
      0.00000000000000E+00   7.11231294896955E-16
      2.00000000000000E-01
      0.00000000000000E+00   0.00000000000000E+00   0.00000000000000E+00   0.00000000000000E+00  -5.92462072577814E-19
     -4.40091305736990E-25  -5.92462512669120E-19  -5.62054397853086E-15   0.00000000000000E+00   0.00000000000000E+00
      0.00000000000000E+00   0.00000000000000E+00   2.29885681975888E-19   4.99108013477141E-25   2.29886181083901E-19
      2.30095432648799E-15   0.00000000000000E+00   0.00000000000000E+00   0.00000000000000E+00   0.00000000000000E+00
      3.62576390601525E-19  -5.90163048610470E-26   3.62576331585220E-19   2.30095432648799E-15   6.00000000000000E-01
      6.00000000000000E-01   0.00000000000000E+00   0.00000000000000E+00   0.00000000000000E+00   0.00000000000000E+00
      0.00000000000000E+00   1.01863532555488E-15
      3.00000000000000E-01
      0.00000000000000E+00   0.00000000000000E+00   0.00000000000000E+00   0.00000000000000E+00  -4.87362636482965E-18
      2.36116226961259E-25  -4.87362612871342E-18  -5.87039686540759E-15   0.00000000000000E+00   0.00000000000000E+00
      0.00000000000000E+00   0.00000000000000E+00   2.31266699379480E-18  -1.15496766568007E-25   2.31266687829803E-18
      2.27967364463549E-15   0.00000000000000E+00   0.00000000000000E+00   0.00000000000000E+00   0.00000000000000E+00
      2.56095937103447E-18  -1.20619073785952E-25   2.56095925041540E-18   2.27967364463549E-15   9.00000000000000E-01
      9.00000000000000E-01   0.00000000000000E+00   0.00000000000000E+00   0.00000000000000E+00   0.00000000000000E+00
      0.00000000000000E+00   1.31104957613661E-15
      4.00000000000000E-01
      0.00000000000000E+00   0.00000000000000E+00   0.00000000000000E+00   0.00000000000000E+00  -9.86059023643429E-16
      5.24423167938740E-24  -9.86059018399198E-16  -6.11279826885379E-15   0.00000000000000E+00   0.00000000000000E+00
      0.00000000000000E+00   0.00000000000000E+00   4.92551682604374E-16  -2.62118508841688E-24   4.92551679983189E-16
      2.25945265912517E-15   0.00000000000000E+00   0.00000000000000E+00   0.00000000000000E+00   0.00000000000000E+00
      4.93507341039009E-16  -2.62299815155532E-24   4.93507338416011E-16   2.25945265912517E-15   1.20000000000000E+00
      1.20000000000000E+00   0.00000000000000E+00   0.00000000000000E+00   0.00000000000000E+00   0.00000000000000E+00
      0.00000000000000E+00   1.59389295060345E-15
      5.00000000000000E-01
      0.00000000000000E+00   0.00000000000000E+00   0.00000000000000E+00   0.00000000000000E+00   1.19309417442215E-14
     -3.02346604380542E-25   1.19309417439191E-14  -6.35616013987876E-15   0.00000000000000E+00   0.00000000000000E+00
      0.00000000000000E+00   0.00000000000000E+00  -5.96578018767523E-15   1.71867977900100E-25  -5.96578018750336E-15
      2.24216249847147E-15   0.00000000000000E+00   0.00000000000000E+00   0.00000000000000E+00   0.00000000000000E+00
     -5.96516155657549E-15   1.59719496050637E-25  -5.96516155641577E-15   2.24216249847147E-15   1.50000000000000E+00
      1.50000000000000E+00   0.00000000000000E+00   0.00000000000000E+00   0.00000000000000E+00   0.00000000000000E+00
      0.00000000000000E+00   1.87183514293581E-15
      6.00000000000000E-01
      0.00000000000000E+00   0.00000000000000E+00   0.00000000000000E+00   0.00000000000000E+00  -1.88516699628615E-17
      2.30966300687192E-25  -1.88516697318952E-17  -6.60255362066890E-15   0.00000000000000E+00   0.00000000000000E+00
      0.00000000000000E+00   0.00000000000000E+00   9.43165172899086E-18  -1.33035559624819E-25   9.43165159595530E-18
      2.22764717855569E-15   0.00000000000000E+00   0.00000000000000E+00   0.00000000000000E+00   0.00000000000000E+00
      9.42001827011194E-18  -1.34172325880539E-25   9.42001813593962E-18   2.22764717855569E-15   1.80000000000000E+00
      1.80000000000000E+00   0.00000000000000E+00   0.00000000000000E+00   0.00000000000000E+00   0.00000000000000E+00
      0.00000000000000E+00   2.14725926355752E-15
      7.00000000000000E-01
      0.00000000000000E+00   0.00000000000000E+00   0.00000000000000E+00   0.00000000000000E+00   3.37784592306672E-18
     -6.37311554827698E-26   3.37784585933556E-18  -6.85014597260924E-15   0.00000000000000E+00   0.00000000000000E+00
      0.00000000000000E+00   0.00000000000000E+00  -1.41378506708207E-18   2.93101183817823E-26  -1.41378503777195E-18
      2.21475862167930E-15   0.00000000000000E+00   0.00000000000000E+00   0.00000000000000E+00   0.00000000000000E+00
     -1.96406085682630E-18   3.52627070769605E-26  -1.96406082156360E-18   2.21475862167930E-15   2.10000000000000E+00
      2.10000000000000E+00   0.00000000000000E+00   0.00000000000000E+00   0.00000000000000E+00   0.00000000000000E+00
      0.00000000000000E+00   2.42062872925064E-15
      8.00000000000000E-01
      0.00000000000000E+00   0.00000000000000E+00   0.00000000000000E+00   0.00000000000000E+00  -4.00305239798971E-19
     -2.25891843919458E-27  -4.00305242057889E-19  -7.10513105139612E-15   0.00000000000000E+00   0.00000000000000E+00
      0.00000000000000E+00   0.00000000000000E+00   9.09218392137360E-18   9.07880910455690E-28   9.09218392228148E-18
      2.20305123935823E-15   0.00000000000000E+00   0.00000000000000E+00   0.00000000000000E+00   0.00000000000000E+00
     -8.69187869205403E-18   1.18304691081805E-26  -8.69187868022356E-18   2.20305123935823E-15   2.40000000000000E+00
      2.40000000000000E+00   0.00000000000000E+00   0.00000000000000E+00   0.00000000000000E+00   0.00000000000000E+00
      0.00000000000000E+00   2.69902857267966E-15
      9.00000000000000E-01
      0.00000000000000E+00   0.00000000000000E+00   0.00000000000000E+00   0.00000000000000E+00   2.57447691715167E-17
      2.01873160352705E-27   2.57447691735355E-17  -7.41797024766134E-15   0.00000000000000E+00   0.00000000000000E+00
      0.00000000000000E+00   0.00000000000000E+00  -1.23856529751730E-17  -1.89063707927951E-27  -1.23856529770636E-17
      2.19220512377485E-15   0.00000000000000E+00   0.00000000000000E+00   0.00000000000000E+00   0.00000000000000E+00
     -1.33591161963443E-17  -1.27550193166410E-28  -1.33591161964718E-17   2.19220512377485E-15   2.70000000000000E+00
      2.70000000000000E+00   0.00000000000000E+00   0.00000000000000E+00   0.00000000000000E+00   0.00000000000000E+00
      0.00000000000000E+00   3.03356000011165E-15
      9.50000000000000E-01
      0.00000000000000E+00   0.00000000000000E+00   0.00000000000000E+00   0.00000000000000E+00   2.58729754522989E-17
      2.00950950922205E-27   2.58729754543084E-17  -7.59584434319637E-15   0.00000000000000E+00   0.00000000000000E+00
      0.00000000000000E+00   0.00000000000000E+00  -1.18461282420571E-17   2.84367005942551E-28  -1.18461282417727E-17
      2.18698580246755E-15   0.00000000000000E+00   0.00000000000000E+00   0.00000000000000E+00   0.00000000000000E+00
     -1.40268472102424E-17  -2.29328129861416E-27  -1.40268472125357E-17   2.18698580246755E-15   2.85000000000000E+00
      2.85000000000000E+00   0.00000000000000E+00   0.00000000000000E+00   0.00000000000000E+00   0.00000000000000E+00
      0.00000000000000E+00   3.22187273826128E-15
      1.00000000000000E+00
      0.00000000000000E+00   0.00000000000000E+00   0.00000000000000E+00   0.00000000000000E+00   1.30172439706962E-17
     -1.18830189524902E-24   1.30172427823943E-17  -7.77904911556791E-15   0.00000000000000E+00   0.00000000000000E+00
      0.00000000000000E+00   0.00000000000000E+00  -6.24993881891954E-18   5.97710288979838E-25  -6.24993822120926E-18
      2.18186362270812E-15   0.00000000000000E+00   0.00000000000000E+00   0.00000000000000E+00   0.00000000000000E+00
     -6.76730516096866E-18   5.99783744217957E-25  -6.76730456118492E-18   2.18186362270812E-15   3.00000000000000E+00
      3.00000000000000E+00   0.00000000000000E+00   0.00000000000000E+00   0.00000000000000E+00   0.00000000000000E+00
      0.00000000000000E+00   3.41532187015167E-15
}
