DF-ISE text

Info {
  version   = 1.0
  type      = xyplot
  datasets  = [
    "time"
    "Left OuterVoltage" "Left InnerVoltage" "Left QuasiFermiPotential" "Left DisplacementCurrent" "Left eCurrent"
    "Left hCurrent" "Left TotalCurrent" "Left Charge" "Right OuterVoltage" "Right InnerVoltage"
    "Right QuasiFermiPotential" "Right DisplacementCurrent" "Right eCurrent" "Right hCurrent" "Right TotalCurrent"
    "Right Charge" ]
  functions = [
    Time
    OuterVoltage InnerVoltage QuasiFermiPotential DisplacementCurrent eCurrent
    hCurrent TotalCurrent Charge OuterVoltage InnerVoltage
    QuasiFermiPotential DisplacementCurrent eCurrent hCurrent TotalCurrent
    Charge ]
}

Data {
      0.00000000000000E+00
      0.00000000000000E+00   0.00000000000000E+00   0.00000000000000E+00   0.00000000000000E+00   3.90474560626886E-42
     -3.90474560626886E-42   0.00000000000000E+00  -1.98748932681496E-31   0.00000000000000E+00   0.00000000000000E+00
      0.00000000000000E+00   0.00000000000000E+00   3.98874227377618E-42  -3.98874227377618E-42   0.00000000000000E+00
     -1.23900930373786E-30
      0.00000000000000E+00
      0.00000000000000E+00   0.00000000000000E+00   0.00000000000000E+00   0.00000000000000E+00   8.25642897806362E-42
     -8.25642897806362E-42   0.00000000000000E+00  -1.61158068539718E-48   0.00000000000000E+00   0.00000000000000E+00
      0.00000000000000E+00   0.00000000000000E+00   8.25622741537987E-42  -8.25622741537987E-42   0.00000000000000E+00
     -4.35126785057239E-47
      1.00000000000000E-02
      2.00000000000000E-02   2.00000000000000E-02   0.00000000000000E+00   0.00000000000000E+00   1.27090435080868E-29
     -1.27090435080868E-29   0.00000000000000E+00   2.28512993981429E-19   0.00000000000000E+00   0.00000000000000E+00
      0.00000000000000E+00   0.00000000000000E+00   8.43821270039061E-42  -8.43821270039061E-42   0.00000000000000E+00
     -2.28512993981431E-19
      2.89333333333333E-02
      5.78666666666667E-02   5.78666666666667E-02   0.00000000000000E+00   0.00000000000000E+00   8.71598295357514E-30
     -8.71598295357514E-30   0.00000000000000E+00   6.61164248651890E-19   0.00000000000000E+00   0.00000000000000E+00
      0.00000000000000E+00   0.00000000000000E+00   8.39903051482073E-42  -8.39903051482073E-42   0.00000000000000E+00
     -6.61164248651899E-19
      6.37706666666667E-02
      1.27541333333333E-01   1.27541333333333E-01   0.00000000000000E+00   0.00000000000000E+00  -6.73532494540859E-31
      6.73532494540859E-31   0.00000000000000E+00   1.45724243155360E-18   0.00000000000000E+00   0.00000000000000E+00
      0.00000000000000E+00   0.00000000000000E+00  -2.02433330084499E-27   2.02433330084499E-27   0.00000000000000E+00
     -1.45724243155361E-18
      8.46730666666667E-02
      1.69346133333333E-01   1.69346133333333E-01   0.00000000000000E+00   0.00000000000000E+00  -2.52887878377766E-28
      2.52887878377766E-28   0.00000000000000E+00   1.93488920628308E-18   0.00000000000000E+00   0.00000000000000E+00
      0.00000000000000E+00   0.00000000000000E+00   8.30942265136855E-42  -8.30942265136855E-42   0.00000000000000E+00
     -1.93488920628306E-18
      1.22576085333333E-01
      2.45152170666667E-01   2.45152170666667E-01   0.00000000000000E+00   0.00000000000000E+00   1.02245886335311E-23
     -1.02245886335311E-23   0.00000000000000E+00   2.80102162984788E-18   0.00000000000000E+00   0.00000000000000E+00
      0.00000000000000E+00   0.00000000000000E+00   7.51149825938919E-26  -7.51149825938919E-26   0.00000000000000E+00
     -2.80102162984784E-18
      1.69070454897778E-01
      3.38140909795556E-01   3.38140909795556E-01   0.00000000000000E+00   0.00000000000000E+00  -3.89549793960780E-23
      3.89549793960780E-23   0.00000000000000E+00   3.86347643825038E-18   0.00000000000000E+00   0.00000000000000E+00
      0.00000000000000E+00   0.00000000000000E+00   8.27173676337609E-42  -8.27173676337609E-42   0.00000000000000E+00
     -3.86347643825034E-18
      2.01926476056652E-01
      4.03852952113304E-01   4.03852952113304E-01   0.00000000000000E+00   0.00000000000000E+00   2.25159688469192E-22
     -2.25159688469192E-22   0.00000000000000E+00   4.61427699585867E-18   0.00000000000000E+00   0.00000000000000E+00
      0.00000000000000E+00   0.00000000000000E+00   8.29338764347240E-42  -8.29338764347240E-42   0.00000000000000E+00
     -4.61427699585867E-18
      2.53619949346614E-01
      5.07239898693227E-01   5.07239898693227E-01   0.00000000000000E+00   0.00000000000000E+00   3.60979578418011E-23
     -3.60979578418011E-23   0.00000000000000E+00   5.79553475756285E-18   0.00000000000000E+00   0.00000000000000E+00
      0.00000000000000E+00   0.00000000000000E+00   8.06403650520247E-42  -8.06403650520247E-42   0.00000000000000E+00
     -5.79553475756280E-18
      3.17030609915634E-01
      6.34061219831267E-01   6.34061219831267E-01   0.00000000000000E+00   0.00000000000000E+00  -6.05346581117229E-25
      6.05346581117229E-25   0.00000000000000E+00   7.24454059873181E-18   0.00000000000000E+00   0.00000000000000E+00
      0.00000000000000E+00   0.00000000000000E+00   8.24459806726563E-42  -8.24459806726563E-42   0.00000000000000E+00
     -7.24454059873182E-18
      3.41126660931861E-01
      6.82253321863722E-01   6.82253321863722E-01   0.00000000000000E+00   0.00000000000000E+00   3.36824271597201E-23
     -3.36824271597201E-23   0.00000000000000E+00   7.79516156430315E-18   0.00000000000000E+00   0.00000000000000E+00
      0.00000000000000E+00   0.00000000000000E+00   8.65285616338180E-42  -8.65285616338180E-42   0.00000000000000E+00
     -7.79516156430317E-18
      3.84178272080854E-01
      7.68356544161709E-01   7.68356544161709E-01   0.00000000000000E+00   0.00000000000000E+00  -6.84659086300364E-25
      6.84659086300364E-25   0.00000000000000E+00   8.77893572488925E-18   0.00000000000000E+00   0.00000000000000E+00
      0.00000000000000E+00   0.00000000000000E+00   8.28757728149347E-42  -8.28757728149347E-42   0.00000000000000E+00
     -8.77893572488931E-18
      4.15175432108130E-01
      8.30350864216259E-01   8.30350864216259E-01   0.00000000000000E+00   0.00000000000000E+00   3.72974797055588E-20
     -3.72974797055588E-20   0.00000000000000E+00   9.48725141447214E-18   0.00000000000000E+00   0.00000000000000E+00
      0.00000000000000E+00   0.00000000000000E+00   8.28626528196905E-42  -8.28626528196905E-42   0.00000000000000E+00
     -9.48725141447215E-18
      4.62291115349588E-01
      9.24582230699176E-01   9.24582230699176E-01   0.00000000000000E+00   0.00000000000000E+00   1.52826489452804E-25
     -1.52826489452804E-25   0.00000000000000E+00   1.05638882381953E-17   0.00000000000000E+00   0.00000000000000E+00
      0.00000000000000E+00   0.00000000000000E+00   8.32494313161992E-42  -8.32494313161992E-42   0.00000000000000E+00
     -1.05638882381953E-17
      4.99355452832868E-01
      9.98710905665737E-01   9.98710905665737E-01   0.00000000000000E+00   0.00000000000000E+00  -3.60433469493861E-24
      3.60433469493861E-24   0.00000000000000E+00   1.14108397430453E-17   0.00000000000000E+00   0.00000000000000E+00
      0.00000000000000E+00   0.00000000000000E+00  -1.17555066161933E-24   1.17555066161933E-24   0.00000000000000E+00
     -1.14108397430453E-17
      5.20605672989949E-01
      1.04121134597990E+00   1.04121134597990E+00   0.00000000000000E+00   0.00000000000000E+00  -2.57173881063972E-28
      2.57173881063972E-28   0.00000000000000E+00   1.18964240774443E-17   0.00000000000000E+00   0.00000000000000E+00
      0.00000000000000E+00   0.00000000000000E+00   8.43088262648450E-42  -8.43088262648450E-42   0.00000000000000E+00
     -1.18964240774444E-17
      5.59139405541456E-01
      1.11827881108291E+00   1.11827881108291E+00   0.00000000000000E+00   0.00000000000000E+00   6.90225116127996E-27
     -6.90225116127996E-27   0.00000000000000E+00   1.27769479717069E-17   0.00000000000000E+00   0.00000000000000E+00
      0.00000000000000E+00   0.00000000000000E+00   7.99615832164484E-42  -7.99615832164484E-42   0.00000000000000E+00
     -1.27769479717070E-17
      5.97673138092962E-01
      1.19534627618592E+00   1.19534627618592E+00   0.00000000000000E+00   0.00000000000000E+00  -1.24788775368740E-23
      1.24788775368740E-23   0.00000000000000E+00   1.36574686288037E-17   0.00000000000000E+00   0.00000000000000E+00
      0.00000000000000E+00   0.00000000000000E+00   8.43594186779463E-42  -8.43594186779463E-42   0.00000000000000E+00
     -1.36574686288038E-17
      6.19252028321806E-01
      1.23850405664361E+00   1.23850405664361E+00   0.00000000000000E+00   0.00000000000000E+00  -2.37706714703067E-28
      2.37706714703067E-28   0.00000000000000E+00   1.41505587005911E-17   0.00000000000000E+00   0.00000000000000E+00
      0.00000000000000E+00   0.00000000000000E+00   8.48088969978603E-42  -8.48088969978603E-42   0.00000000000000E+00
     -1.41505587005913E-17
      6.58381749270109E-01
      1.31676349854022E+00   1.31676349854022E+00   0.00000000000000E+00   0.00000000000000E+00   8.06319078234306E-42
     -8.06319078234306E-42   0.00000000000000E+00   1.50446924730030E-17   0.00000000000000E+00   0.00000000000000E+00
      0.00000000000000E+00   0.00000000000000E+00   3.38997565445320E-23  -3.38997565445320E-23   0.00000000000000E+00
     -1.50446924730032E-17
      6.79250933775871E-01
      1.35850186755174E+00   1.35850186755174E+00   0.00000000000000E+00   0.00000000000000E+00  -2.52733605079741E-28
      2.52733605079741E-28   0.00000000000000E+00   1.55215622290503E-17   0.00000000000000E+00   0.00000000000000E+00
      0.00000000000000E+00   0.00000000000000E+00   7.76547605017679E-42  -7.76547605017679E-42   0.00000000000000E+00
     -1.55215622290502E-17
      7.17093721679652E-01
      1.43418744335930E+00   1.43418744335930E+00   0.00000000000000E+00   0.00000000000000E+00   8.39871746802645E-42
     -8.39871746802645E-42   0.00000000000000E+00   1.63862830945515E-17   0.00000000000000E+00   0.00000000000000E+00
      0.00000000000000E+00   0.00000000000000E+00  -2.24162755078018E-23   2.24162755078018E-23   0.00000000000000E+00
     -1.63862830945516E-17
      7.39294823916537E-01
      1.47858964783307E+00   1.47858964783307E+00   0.00000000000000E+00   0.00000000000000E+00  -1.18113888926902E-28
      1.18113888926902E-28   0.00000000000000E+00   1.68935841583883E-17   0.00000000000000E+00   0.00000000000000E+00
      0.00000000000000E+00   0.00000000000000E+00   8.17446135213277E-42  -8.17446135213277E-42   0.00000000000000E+00
     -1.68935841583883E-17
      7.79552822639421E-01
      1.55910564527884E+00   1.55910564527884E+00   0.00000000000000E+00   0.00000000000000E+00   8.19915781959565E-42
     -8.19915781959565E-42   0.00000000000000E+00   1.78134864490149E-17   0.00000000000000E+00   0.00000000000000E+00
      0.00000000000000E+00   0.00000000000000E+00  -1.11352854339153E-23   1.11352854339153E-23   0.00000000000000E+00
     -1.78134864490150E-17
      8.01560528607932E-01
      1.60312105721586E+00   1.60312105721586E+00   0.00000000000000E+00   0.00000000000000E+00  -1.53624306150263E-28
      1.53624306150263E-28   0.00000000000000E+00   1.83163643116188E-17   0.00000000000000E+00   0.00000000000000E+00
      0.00000000000000E+00   0.00000000000000E+00   8.60538057926985E-42  -8.60538057926985E-42   0.00000000000000E+00
     -1.83163643116189E-17
      8.41467835430830E-01
      1.68293567086166E+00   1.68293567086166E+00   0.00000000000000E+00   0.00000000000000E+00   8.41911790866393E-42
     -8.41911790866393E-42   0.00000000000000E+00   1.92282456350678E-17   0.00000000000000E+00   0.00000000000000E+00
      0.00000000000000E+00   0.00000000000000E+00  -1.00428957042326E-23   1.00428957042326E-23   0.00000000000000E+00
     -1.92282456350677E-17
      8.62219634978738E-01
      1.72443926995748E+00   1.72443926995748E+00   0.00000000000000E+00   0.00000000000000E+00  -2.48925071110893E-28
      2.48925071110893E-28   0.00000000000000E+00   1.97024218873445E-17   0.00000000000000E+00   0.00000000000000E+00
      0.00000000000000E+00   0.00000000000000E+00   8.34926842705199E-42  -8.34926842705199E-42   0.00000000000000E+00
     -1.97024218873445E-17
      8.99849564825610E-01
      1.79969912965122E+00   1.79969912965122E+00   0.00000000000000E+00   0.00000000000000E+00  -1.73163108497252E-25
      1.73163108497252E-25   0.00000000000000E+00   2.05622578023912E-17   0.00000000000000E+00   0.00000000000000E+00
      0.00000000000000E+00   0.00000000000000E+00   8.26423198648979E-42  -8.26423198648979E-42   0.00000000000000E+00
     -2.05622578023913E-17
      9.38984691866356E-01
      1.87796938373271E+00   1.87796938373271E+00   0.00000000000000E+00   0.00000000000000E+00  -2.68261960828369E-23
      2.68261960828369E-23   0.00000000000000E+00   2.14564819255104E-17   0.00000000000000E+00   0.00000000000000E+00
      0.00000000000000E+00   0.00000000000000E+00   8.38422608350335E-42  -8.38422608350335E-42   0.00000000000000E+00
     -2.14564819255105E-17
      9.62987569784681E-01
      1.92597513956936E+00   1.92597513956936E+00   0.00000000000000E+00   0.00000000000000E+00  -5.22150918001624E-23
      5.22150918001624E-23   0.00000000000000E+00   2.20049366545879E-17   0.00000000000000E+00   0.00000000000000E+00
      0.00000000000000E+00   0.00000000000000E+00   7.90285178500161E-42  -7.90285178500161E-42   0.00000000000000E+00
     -2.20049366545879E-17
      1.00000000000000E+00
      2.00000000000000E+00   2.00000000000000E+00   0.00000000000000E+00   0.00000000000000E+00   8.46492728680380E-42
     -8.46492728680380E-42   0.00000000000000E+00   2.28506494608873E-17   0.00000000000000E+00   0.00000000000000E+00
      0.00000000000000E+00   0.00000000000000E+00  -3.45187115166142E-23   3.45187115166142E-23   0.00000000000000E+00
     -2.28506494608871E-17
}
