DF-ISE text

Info {
  version   = 1.0
  type      = xyplot
  datasets  = [
    "time"
    "top OuterVoltage" "top InnerVoltage" "top QuasiFermiPotential" "top DisplacementCurrent" "top eCurrent"
    "top hCurrent" "top TotalCurrent" "top Charge" "bottom OuterVoltage" "bottom InnerVoltage"
    "bottom QuasiFermiPotential" "bottom DisplacementCurrent" "bottom eCurrent" "bottom hCurrent" "bottom TotalCurrent"
    "bottom Charge" ]
  functions = [
    Time
    OuterVoltage InnerVoltage QuasiFermiPotential DisplacementCurrent eCurrent
    hCurrent TotalCurrent Charge OuterVoltage InnerVoltage
    QuasiFermiPotential DisplacementCurrent eCurrent hCurrent TotalCurrent
    Charge ]
}

Data {
      0.00000000000000E+00
      0.00000000000000E+00   0.00000000000000E+00   0.00000000000000E+00   0.00000000000000E+00   1.69858979220586E-21
      3.51049903662116E-30   1.69858979571636E-21   3.69584431758997E-17   0.00000000000000E+00   0.00000000000000E+00
      0.00000000000000E+00   0.00000000000000E+00  -1.69858979263507E-21  -3.08128694082135E-30  -1.69858979571636E-21
     -3.69584431758997E-17
      0.00000000000000E+00
      0.00000000000000E+00   0.00000000000000E+00   0.00000000000000E+00   0.00000000000000E+00   4.94969573894572E-21
      3.91285552682143E-31   4.94969573933701E-21   3.69594192171843E-17   0.00000000000000E+00   0.00000000000000E+00
      0.00000000000000E+00   0.00000000000000E+00  -4.94969573798601E-21  -1.35100623238881E-30  -4.94969573933701E-21
     -3.69594192171843E-17
      1.00000000000000E-02
     -1.00000000000000E-02  -1.00000000000000E-02   0.00000000000000E+00   0.00000000000000E+00  -7.88804115577268E-15
     -7.78243730940312E-19  -7.88881939950362E-15   3.68668398450195E-17   0.00000000000000E+00   0.00000000000000E+00
      0.00000000000000E+00   0.00000000000000E+00   7.85195718116363E-15   3.68622183399848E-17   7.88881939950361E-15
     -3.68668398450195E-17
      2.89333333333333E-02
     -2.89333333333333E-02  -2.89333333333333E-02   0.00000000000000E+00   0.00000000000000E+00  -3.23997220986779E-14
     -3.16676432662002E-18  -3.24028888630046E-14   3.66947717827936E-17   0.00000000000000E+00   0.00000000000000E+00
      0.00000000000000E+00   0.00000000000000E+00   3.22728461932711E-14   1.30042669733434E-16   3.24028888630046E-14
     -3.66947717827936E-17
      6.42755555555556E-02
     -6.42755555555556E-02  -6.42755555555556E-02   0.00000000000000E+00   0.00000000000000E+00  -1.53196773430230E-13
     -1.63415049363898E-17  -1.53213114935166E-13   3.63847859839864E-17   0.00000000000000E+00   0.00000000000000E+00
      0.00000000000000E+00   0.00000000000000E+00   1.52767534507039E-13   4.45580428126839E-16   1.53213114935166E-13
     -3.63847859839864E-17
      1.14275555555556E-01
     -1.14275555555556E-01  -1.14275555555556E-01   0.00000000000000E+00   0.00000000000000E+00  -9.39823128573657E-13
     -8.85332633921000E-17  -9.39911661837049E-13   3.59707359352472E-17   0.00000000000000E+00   0.00000000000000E+00
      0.00000000000000E+00   0.00000000000000E+00   9.38280281780022E-13   1.63138005702792E-15   9.39911661837050E-13
     -3.59707359352472E-17
      1.39275555555556E-01
     -1.39275555555556E-01  -1.39275555555556E-01   0.00000000000000E+00   0.00000000000000E+00  -2.23294168087190E-12
     -2.25041934848871E-16  -2.23316672280675E-12   3.57740903909091E-17   0.00000000000000E+00   0.00000000000000E+00
      0.00000000000000E+00   0.00000000000000E+00   2.23016113475158E-12   3.00558805516638E-15   2.23316672280675E-12
     -3.57740903909090E-17
      1.59942222222222E-01
     -1.59942222222222E-01  -1.59942222222222E-01   0.00000000000000E+00   0.00000000000000E+00  -4.51878883597652E-12
     -4.93105857594436E-16  -4.51928194183411E-12   3.56164663843537E-17   0.00000000000000E+00   0.00000000000000E+00
      0.00000000000000E+00   0.00000000000000E+00   4.51430319301792E-12   4.97874881619041E-15   4.51928194183411E-12
     -3.56164663843537E-17
      1.77577777777778E-01
     -1.77577777777778E-01  -1.77577777777778E-01   0.00000000000000E+00   0.00000000000000E+00  -8.19353304784624E-12
     -9.68800077392538E-16  -8.19450184792363E-12   3.54852827318638E-17   0.00000000000000E+00   0.00000000000000E+00
      0.00000000000000E+00   0.00000000000000E+00   8.18680681765351E-12   7.69503027011800E-15   8.19450184792362E-12
     -3.54852827318638E-17
      1.92626785185185E-01
     -1.92626785185185E-01  -1.92626785185185E-01   0.00000000000000E+00   0.00000000000000E+00  -1.35527105807839E-11
     -1.72826872717913E-15  -1.35544388495111E-11   3.53755817717891E-17   0.00000000000000E+00   0.00000000000000E+00
      0.00000000000000E+00   0.00000000000000E+00   1.35432158956838E-11   1.12229538273231E-14   1.35544388495111E-11
     -3.53755817717891E-17
      2.19113038222222E-01
     -2.19113038222222E-01  -2.19113038222222E-01   0.00000000000000E+00   0.00000000000000E+00  -3.25120986017256E-11
     -4.80072272895306E-15  -3.25168993244545E-11   3.51869069942489E-17   0.00000000000000E+00   0.00000000000000E+00
      0.00000000000000E+00   0.00000000000000E+00   3.24946936219486E-11   2.22057025058913E-14   3.25168993244545E-11
     -3.51869069942489E-17
      2.39948890611358E-01
     -2.39948890611358E-01  -2.39948890611358E-01   0.00000000000000E+00   0.00000000000000E+00  -6.40399957842694E-11
     -1.07370823612838E-14  -6.40507328666307E-11   3.50415829138790E-17   0.00000000000000E+00   0.00000000000000E+00
      0.00000000000000E+00   0.00000000000000E+00   6.40119622134932E-11   3.87706531373143E-14   6.40507328666305E-11
     -3.50415829138790E-17
      2.57451006618232E-01
     -2.57451006618232E-01  -2.57451006618232E-01   0.00000000000000E+00   0.00000000000000E+00  -1.12265786412880E-10
     -2.11197318184789E-14  -1.12286906144698E-10   3.49207354777540E-17   0.00000000000000E+00   0.00000000000000E+00
      0.00000000000000E+00   0.00000000000000E+00   1.12223961814280E-10   6.29443304188096E-14   1.12286906144698E-10
     -3.49207354777540E-17
      2.72386145610765E-01
     -2.72386145610765E-01  -2.72386145610765E-01   0.00000000000000E+00   0.00000000000000E+00  -1.80057883740845E-10
     -3.76228532055291E-14  -1.80095506594051E-10   3.48177020628964E-17   0.00000000000000E+00   0.00000000000000E+00
      0.00000000000000E+00   0.00000000000000E+00   1.79999082303788E-10   9.64242902629528E-14   1.80095506594051E-10
     -3.48177020628964E-17
      2.75671876189122E-01
     -2.75671876189122E-01  -2.75671876189122E-01   0.00000000000000E+00   0.00000000000000E+00  -1.99598789913894E-10
     -4.27192031122353E-14  -1.99641509117007E-10   3.47949566324932E-17   0.00000000000000E+00   0.00000000000000E+00
      0.00000000000000E+00   0.00000000000000E+00   1.99535421677521E-10   1.06087439485808E-13   1.99641509117007E-10
     -3.47949566324932E-17
      2.81892859417478E-01
     -2.81892859417478E-01  -2.81892859417478E-01   0.00000000000000E+00   0.00000000000000E+00  -2.42361354765887E-10
     -5.43444271503451E-14  -2.42415699193037E-10   3.47517389461229E-17   0.00000000000000E+00   0.00000000000000E+00
      0.00000000000000E+00   0.00000000000000E+00   2.42288361319902E-10   1.27337873134739E-13   2.42415699193037E-10
     -3.47517389461229E-17
      2.87782056873655E-01
     -2.87782056873655E-01  -2.87782056873655E-01   0.00000000000000E+00   0.00000000000000E+00  -2.90905152159742E-10
     -6.82296760729838E-14  -2.90973381835815E-10   3.47105733913578E-17   0.00000000000000E+00   0.00000000000000E+00
      0.00000000000000E+00   0.00000000000000E+00   2.90821727941415E-10   1.51653894399651E-13   2.90973381835814E-10
     -3.47105733913579E-17
      2.93357163798836E-01
     -2.93357163798836E-01  -2.93357163798836E-01   0.00000000000000E+00   0.00000000000000E+00  -3.45397171583451E-10
     -8.46427894534554E-14  -3.45481814372905E-10   3.46712975550199E-17   0.00000000000000E+00   0.00000000000000E+00
      0.00000000000000E+00   0.00000000000000E+00   3.45302533302953E-10   1.79281069951717E-13   3.45481814372905E-10
     -3.46712975550200E-17
      2.98634931688008E-01
     -2.98634931688008E-01  -2.98634931688008E-01   0.00000000000000E+00   0.00000000000000E+00  -4.05925125792278E-10
     -1.03803892055358E-13  -4.06028929684333E-10   3.46337659489556E-17   0.00000000000000E+00   0.00000000000000E+00
      0.00000000000000E+00   0.00000000000000E+00   4.05818521789466E-10   2.10407894867498E-13   4.06028929684334E-10
     -3.46337659489556E-17
      3.03631218623090E-01
     -3.03631218623090E-01  -3.03631218623090E-01   0.00000000000000E+00   0.00000000000000E+00  -4.72495774781763E-10
     -1.25924463767847E-13  -4.72621699245530E-10   3.45978487160982E-17   0.00000000000000E+00   0.00000000000000E+00
      0.00000000000000E+00   0.00000000000000E+00   4.72376493773155E-10   2.45205472374860E-13   4.72621699245530E-10
     -3.45978487160982E-17
      3.08361036921635E-01
     -3.08361036921635E-01  -3.08361036921635E-01   0.00000000000000E+00   0.00000000000000E+00  -5.45035944169782E-10
     -1.51192812123925E-13  -5.45187136981905E-10   3.45634303447502E-17   0.00000000000000E+00   0.00000000000000E+00
      0.00000000000000E+00   0.00000000000000E+00   5.44903322840992E-10   2.83814140913896E-13   5.45187136981905E-10
     -3.45634303447502E-17
      3.12838598244257E-01
     -3.12838598244257E-01  -3.12838598244257E-01   0.00000000000000E+00   0.00000000000000E+00  -6.23395981686353E-10
     -1.79769154130862E-13  -6.23575750840484E-10   3.45304084876950E-17   0.00000000000000E+00   0.00000000000000E+00
      0.00000000000000E+00   0.00000000000000E+00   6.23249411059673E-10   3.26339780810494E-13   6.23575750840484E-10
     -3.45304084876950E-17
      3.17077356296339E-01
     -3.17077356296339E-01  -3.17077356296339E-01   0.00000000000000E+00   0.00000000000000E+00  -7.07355238251552E-10
     -2.11781485091943E-13  -7.07567019736644E-10   3.44986927063005E-17   0.00000000000000E+00   0.00000000000000E+00
      0.00000000000000E+00   0.00000000000000E+00   7.07194168765427E-10   3.72850971217090E-13   7.07567019736644E-10
     -3.44986927063005E-17
      3.25102738208282E-01
     -3.25102738208282E-01  -3.25102738208282E-01   0.00000000000000E+00   0.00000000000000E+00  -8.96489009293785E-10
     -2.88826558782148E-13  -8.96777835852567E-10   3.44372028551693E-17   0.00000000000000E+00   0.00000000000000E+00
      0.00000000000000E+00   0.00000000000000E+00   8.96296643597168E-10   4.81192255398765E-13   8.96777835852567E-10
     -3.44372028551693E-17
      3.40083451110575E-01
     -3.40083451110575E-01  -3.40083451110575E-01   0.00000000000000E+00   0.00000000000000E+00  -1.38336514689819E-09
     -5.15400133034223E-13  -1.38388054703123E-09   3.43158332950778E-17   0.00000000000000E+00   0.00000000000000E+00
      0.00000000000000E+00   0.00000000000000E+00   1.38309831871018E-09   7.82228321046527E-13   1.38388054703123E-09
     -3.43158332950777E-17
      3.53665964141987E-01
     -3.53665964141987E-01  -3.53665964141987E-01   0.00000000000000E+00   0.00000000000000E+00  -2.02833572821352E-09
     -8.71238833353234E-13  -2.02920696704687E-09   3.41955183308117E-17   0.00000000000000E+00   0.00000000000000E+00
      0.00000000000000E+00   0.00000000000000E+00   2.02797876166451E-09   1.22820538236150E-12   2.02920696704687E-09
     -3.41955183308118E-17
      3.77933387424776E-01
     -3.77933387424776E-01  -3.77933387424776E-01   0.00000000000000E+00   0.00000000000000E+00  -3.91206108384306E-09
     -2.22493973816564E-12  -3.91428602358122E-09   3.39431122554042E-17   0.00000000000000E+00   0.00000000000000E+00
      0.00000000000000E+00   0.00000000000000E+00   3.91147034654540E-09   2.81567703582932E-12   3.91428602358123E-09
     -3.39431122554043E-17
      3.82786872081334E-01
     -3.82786872081334E-01  -3.82786872081334E-01   0.00000000000000E+00   0.00000000000000E+00  -4.44236250643335E-09
     -2.68358978789430E-12  -4.44504609622124E-09   3.38847623197868E-17   0.00000000000000E+00   0.00000000000000E+00
      0.00000000000000E+00   0.00000000000000E+00   4.44171099396739E-09   3.33510225385818E-12   4.44504609622125E-09
     -3.38847623197868E-17
      3.91976136364417E-01
     -3.91976136364417E-01  -3.91976136364417E-01   0.00000000000000E+00   0.00000000000000E+00  -5.62911558936769E-09
     -3.82630454876361E-12  -5.63294189391646E-09   3.37649603139442E-17   0.00000000000000E+00   0.00000000000000E+00
      0.00000000000000E+00   0.00000000000000E+00   5.62833353065470E-09   4.60836326174190E-12   5.63294189391644E-09
     -3.37649603139442E-17
      4.00185212457305E-01
     -4.00185212457305E-01  -4.00185212457305E-01   0.00000000000000E+00   0.00000000000000E+00  -6.92512128918657E-09
     -5.25219847406629E-12  -6.93037348766063E-09   3.36459558942159E-17   0.00000000000000E+00   0.00000000000000E+00
      0.00000000000000E+00   0.00000000000000E+00   6.92420355004114E-09   6.16993761949021E-12   6.93037348766063E-09
     -3.36459558942159E-17
      4.14852095076597E-01
     -4.14852095076597E-01  -4.14852095076597E-01   0.00000000000000E+00   0.00000000000000E+00  -9.92911469266484E-09
     -9.24484387855946E-12  -9.93835953654340E-09   3.33986829929698E-17   0.00000000000000E+00   0.00000000000000E+00
      0.00000000000000E+00   0.00000000000000E+00   9.92790274008494E-09   1.04567964585040E-11   9.93835953654344E-09
     -3.33986829929698E-17
      4.21207744211624E-01
     -4.21207744211624E-01  -4.21207744211624E-01   0.00000000000000E+00   0.00000000000000E+00  -1.15628605887100E-08
     -1.18084844392846E-11  -1.15746690731493E-08   3.32749964666561E-17   0.00000000000000E+00   0.00000000000000E+00
      0.00000000000000E+00   0.00000000000000E+00   1.15614978213268E-08   1.31712518225315E-11   1.15746690731493E-08
     -3.32749964666561E-17
      4.27224425392783E-01
     -4.27224425392783E-01  -4.27224425392783E-01   0.00000000000000E+00   0.00000000000000E+00  -1.33292388850184E-08
     -1.48846433774447E-11  -1.33441235283958E-08   3.31470888927309E-17   0.00000000000000E+00   0.00000000000000E+00
      0.00000000000000E+00   0.00000000000000E+00   1.33277189346736E-08   1.64045937222332E-11   1.33441235283958E-08
     -3.31470888927309E-17
      4.32920216910946E-01
     -4.32920216910946E-01  -4.32920216910946E-01   0.00000000000000E+00   0.00000000000000E+00  -1.52223614033747E-08
     -1.85282493600198E-11  -1.52408896527347E-08   3.30152295424757E-17   0.00000000000000E+00   0.00000000000000E+00
      0.00000000000000E+00   0.00000000000000E+00   1.52206789072593E-08   2.02107454754761E-11   1.52408896527347E-08
     -3.30152295424757E-17
      4.43704248852002E-01
     -4.43704248852002E-01  -4.43704248852002E-01   0.00000000000000E+00   0.00000000000000E+00  -1.94855776806936E-08
     -2.80285728470248E-11  -1.95136062535406E-08   3.27329318890247E-17   0.00000000000000E+00   0.00000000000000E+00
      0.00000000000000E+00   0.00000000000000E+00   1.94835482868544E-08   3.00579666861620E-11   1.95136062535406E-08
     -3.27329318890248E-17
      4.62971719253356E-01
     -4.62971719253356E-01  -4.62971719253356E-01   0.00000000000000E+00   0.00000000000000E+00  -2.98749945504322E-08
     -5.85470738606612E-11  -2.99335416242928E-08   3.20990234978515E-17   0.00000000000000E+00   0.00000000000000E+00
      0.00000000000000E+00   0.00000000000000E+00   2.98722089524454E-08   6.13326718474496E-11   2.99335416242928E-08
     -3.20990234978515E-17
      4.71320956427276E-01
     -4.71320956427276E-01  -4.71320956427276E-01   0.00000000000000E+00   0.00000000000000E+00  -3.57694565073348E-08
     -8.04296333391697E-11  -3.58498861406740E-08   3.17616712968205E-17   0.00000000000000E+00   0.00000000000000E+00
      0.00000000000000E+00   0.00000000000000E+00   3.57662887852798E-08   8.35973553941755E-11   3.58498861406740E-08
     -3.17616712968206E-17
      4.79113577789601E-01
     -4.79113577789601E-01  -4.79113577789601E-01   0.00000000000000E+00   0.00000000000000E+00  -4.22046089342872E-08
     -1.08045365785760E-10  -4.23126543000729E-08   3.14065865472376E-17   0.00000000000000E+00   0.00000000000000E+00
      0.00000000000000E+00   0.00000000000000E+00   4.22010581955073E-08   1.11596104565621E-10   4.23126543000729E-08
     -3.14065865472376E-17
      4.93659804332608E-01
     -4.93659804332608E-01  -4.93659804332608E-01   0.00000000000000E+00   0.00000000000000E+00  -5.70970014752222E-08
     -1.86689097723240E-10  -5.72836905729455E-08   3.06260109578219E-17   0.00000000000000E+00   0.00000000000000E+00
      0.00000000000000E+00   0.00000000000000E+00   5.70926893841922E-08   1.91001188753357E-10   5.72836905729456E-08
     -3.06260109578220E-17
      5.06072584315974E-01
     -5.06072584315974E-01  -5.06072584315974E-01   0.00000000000000E+00   0.00000000000000E+00  -7.33997020160014E-08
     -2.96037183684782E-10  -7.36957391996862E-08   2.98236691215967E-17   0.00000000000000E+00   0.00000000000000E+00
      0.00000000000000E+00   0.00000000000000E+00   7.33947412866328E-08   3.00997913053398E-10   7.36957391996862E-08
     -2.98236691215966E-17
      5.11782463108323E-01
     -5.11782463108323E-01  -5.11782463108323E-01   0.00000000000000E+00   0.00000000000000E+00  -8.22145729789716E-08
     -3.65146751189458E-10  -8.25797197301611E-08   2.94088759986283E-17   0.00000000000000E+00   0.00000000000000E+00
      0.00000000000000E+00   0.00000000000000E+00   8.22093373907040E-08   3.70382339457052E-10   8.25797197301610E-08
     -2.94088759986283E-17
      5.22593166955169E-01
     -5.22593166955169E-01  -5.22593166955169E-01   0.00000000000000E+00   0.00000000000000E+00  -1.01515255350259E-07
     -5.40583262330271E-10  -1.02055838612590E-07   2.85414060152534E-17   0.00000000000000E+00   0.00000000000000E+00
      0.00000000000000E+00   0.00000000000000E+00   1.01509595574673E-07   5.46243037916257E-10   1.02055838612589E-07
     -2.85414060152534E-17
      5.42484862033366E-01
     -5.42484862033366E-01  -5.42484862033366E-01   0.00000000000000E+00   0.00000000000000E+00  -1.47469557803981E-07
     -1.08843194856871E-09  -1.48557989752550E-07   2.66678861044362E-17   0.00000000000000E+00   0.00000000000000E+00
      0.00000000000000E+00   0.00000000000000E+00   1.47463818646710E-07   1.09417110584043E-09   1.48557989752550E-07
     -2.66678861044362E-17
      5.59989553702180E-01
     -5.59989553702180E-01  -5.59989553702180E-01   0.00000000000000E+00   0.00000000000000E+00  -2.01044515754169E-07
     -1.94982335052184E-09  -2.02994339104691E-07   2.47626016580542E-17   0.00000000000000E+00   0.00000000000000E+00
      0.00000000000000E+00   0.00000000000000E+00   2.01040237534064E-07   1.95410157062625E-09   2.02994339104691E-07
     -2.47626016580541E-17
      5.91731394594962E-01
     -5.91731394594962E-01  -5.91731394594962E-01   0.00000000000000E+00   0.00000000000000E+00  -3.32430174736295E-07
     -5.00136473598820E-09  -3.37431539472283E-07   2.10210612635294E-17   0.00000000000000E+00   0.00000000000000E+00
      0.00000000000000E+00   0.00000000000000E+00   3.32435933290695E-07   4.99560618158789E-09   3.37431539472283E-07
     -2.10210612635294E-17
      6.04231394594962E-01
     -6.04231394594962E-01  -6.04231394594962E-01   0.00000000000000E+00   0.00000000000000E+00  -3.94950449896060E-07
     -6.88171042606266E-09  -4.01832160322123E-07   1.95864059094306E-17   0.00000000000000E+00   0.00000000000000E+00
      0.00000000000000E+00   0.00000000000000E+00   3.94963926778063E-07   6.86823354405955E-09   4.01832160322122E-07
     -1.95864059094307E-17
      6.15898061261629E-01
     -6.15898061261629E-01  -6.15898061261629E-01   0.00000000000000E+00   0.00000000000000E+00  -4.57039570818009E-07
     -8.99567106393939E-09  -4.66035241881949E-07   1.83291550835530E-17   0.00000000000000E+00   0.00000000000000E+00
      0.00000000000000E+00   0.00000000000000E+00   4.57062420241644E-07   8.97282164030473E-09   4.66035241881948E-07
     -1.83291550835530E-17
      6.21342505706073E-01
     -6.21342505706073E-01  -6.21342505706073E-01   0.00000000000000E+00   0.00000000000000E+00  -4.86800734781154E-07
     -1.00902428773601E-08  -4.96890977658515E-07   1.77775698321781E-17   0.00000000000000E+00   0.00000000000000E+00
      0.00000000000000E+00   0.00000000000000E+00   4.86828644282891E-07   1.00623333756242E-08   4.96890977658515E-07
     -1.77775698321781E-17
      6.26496579780147E-01
     -6.26496579780147E-01  -6.26496579780147E-01   0.00000000000000E+00   0.00000000000000E+00  -5.15219771360835E-07
     -1.11817905496291E-08  -5.26401561910464E-07   1.72785744141689E-17   0.00000000000000E+00   0.00000000000000E+00
      0.00000000000000E+00   0.00000000000000E+00   5.15252839015761E-07   1.11487228947043E-08   5.26401561910465E-07
     -1.72785744141688E-17
      6.36254960027061E-01
     -6.36254960027061E-01  -6.36254960027061E-01   0.00000000000000E+00   0.00000000000000E+00  -5.69149156318554E-07
     -1.33702550940542E-08  -5.82519411412608E-07   1.63994284255803E-17   0.00000000000000E+00   0.00000000000000E+00
      0.00000000000000E+00   0.00000000000000E+00   5.69192845070168E-07   1.33265663424400E-08   5.82519411412608E-07
     -1.63994284255803E-17
      6.45232669854221E-01
     -6.45232669854221E-01  -6.45232669854221E-01   0.00000000000000E+00   0.00000000000000E+00  -6.18223003529418E-07
     -1.54846416382568E-08  -6.33707645167674E-07   1.56689346181034E-17   0.00000000000000E+00   0.00000000000000E+00
      0.00000000000000E+00   0.00000000000000E+00   6.18277244750907E-07   1.54304004167669E-08   6.33707645167674E-07
     -1.56689346181034E-17
      6.61991061531588E-01
     -6.61991061531588E-01  -6.61991061531588E-01   0.00000000000000E+00   0.00000000000000E+00  -7.06238226500491E-07
     -1.95315767117272E-08  -7.25769803212218E-07   1.45029619833350E-17   0.00000000000000E+00   0.00000000000000E+00
      0.00000000000000E+00   0.00000000000000E+00   7.06313290221544E-07   1.94565129906735E-08   7.25769803212218E-07
     -1.45029619833350E-17
      6.77185336652400E-01
     -6.77185336652400E-01  -6.77185336652400E-01   0.00000000000000E+00   0.00000000000000E+00  -7.80039437560765E-07
     -2.31295238264656E-08  -8.03168961387231E-07   1.36492706497294E-17   0.00000000000000E+00   0.00000000000000E+00
      0.00000000000000E+00   0.00000000000000E+00   7.80133569774786E-07   2.30353916124453E-08   8.03168961387231E-07
     -1.36492706497294E-17
      6.91164069763547E-01
     -6.91164069763547E-01  -6.91164069763547E-01   0.00000000000000E+00   0.00000000000000E+00  -8.42030556304445E-07
     -2.62556564387907E-08  -8.68286212743236E-07   1.30085140744300E-17   0.00000000000000E+00   0.00000000000000E+00
      0.00000000000000E+00   0.00000000000000E+00   8.42141614675588E-07   2.61445980676507E-08   8.68286212743238E-07
     -1.30085140744300E-17
      7.04024504225802E-01
     -7.04024504225802E-01  -7.04024504225802E-01   0.00000000000000E+00   0.00000000000000E+00  -8.94074601601255E-07
     -2.89270820448773E-08  -9.23001683646132E-07   1.25191023901551E-17   0.00000000000000E+00   0.00000000000000E+00
      0.00000000000000E+00   0.00000000000000E+00   8.94200363539165E-07   2.88013201069672E-08   9.23001683646132E-07
     -1.25191023901551E-17
      7.28030648555345E-01
     -7.28030648555345E-01  -7.28030648555345E-01   0.00000000000000E+00   0.00000000000000E+00  -9.79883250024491E-07
     -3.33680523670128E-08  -1.01325130239150E-06   1.17991795862346E-17   0.00000000000000E+00   0.00000000000000E+00
      0.00000000000000E+00   0.00000000000000E+00   9.80033911657615E-07   3.32173907338880E-08   1.01325130239150E-06
     -1.17991795862346E-17
      7.49156055565343E-01
     -7.49156055565343E-01  -7.49156055565343E-01   0.00000000000000E+00   0.00000000000000E+00  -1.04562024346156E-06
     -3.67581179245501E-08  -1.08237836138611E-06   1.13128541645922E-17   0.00000000000000E+00   0.00000000000000E+00
      0.00000000000000E+00   0.00000000000000E+00   1.04579027557323E-06   3.65880858128812E-08   1.08237836138611E-06
     -1.13128541645922E-17
      7.68028085827609E-01
     -7.68028085827609E-01  -7.68028085827609E-01   0.00000000000000E+00   0.00000000000000E+00  -1.09863363759570E-06
     -3.94657601917419E-08  -1.13809939778745E-06   1.09565401236860E-17   0.00000000000000E+00   0.00000000000000E+00
      0.00000000000000E+00   0.00000000000000E+00   1.09881935118049E-06   3.92800466069524E-08   1.13809939778745E-06
     -1.09565401236861E-17
      8.01746113229522E-01
     -8.01746113229522E-01  -8.01746113229522E-01   0.00000000000000E+00   0.00000000000000E+00  -1.18399840742520E-06
     -4.37631903986478E-08  -1.22776159782385E-06   1.04400294614159E-17   0.00000000000000E+00   0.00000000000000E+00
      0.00000000000000E+00   0.00000000000000E+00   1.18420935410183E-06   4.35522437220232E-08   1.22776159782385E-06
     -1.04400294614159E-17
      8.51746113229522E-01
     -8.51746113229522E-01  -8.51746113229522E-01   0.00000000000000E+00   0.00000000000000E+00  -1.29644575657580E-06
     -4.93070713708532E-08  -1.34575282794665E-06   9.84697881221775E-18   0.00000000000000E+00   0.00000000000000E+00
      0.00000000000000E+00   0.00000000000000E+00   1.29668978515863E-06   4.90630427880194E-08   1.34575282794665E-06
     -9.84697881221772E-18
      8.76746113229522E-01
     -8.76746113229522E-01  -8.76746113229522E-01   0.00000000000000E+00   0.00000000000000E+00  -1.34841746638779E-06
     -5.18266801823538E-08  -1.40024414657014E-06   9.60028332468404E-18   0.00000000000000E+00   0.00000000000000E+00
      0.00000000000000E+00   0.00000000000000E+00   1.34867669815626E-06   5.15674484138830E-08   1.40024414657014E-06
     -9.60028332468410E-18
      8.98412779896189E-01
     -8.98412779896189E-01  -8.98412779896189E-01   0.00000000000000E+00   0.00000000000000E+00  -1.39171372877222E-06
     -5.39052684630552E-08  -1.44561899723527E-06   9.40613002806466E-18   0.00000000000000E+00   0.00000000000000E+00
      0.00000000000000E+00   0.00000000000000E+00   1.39198557264331E-06   5.36334245919632E-08   1.44561899723527E-06
     -9.40613002806472E-18
      9.17768335451744E-01
     -9.17768335451744E-01  -9.17768335451744E-01   0.00000000000000E+00   0.00000000000000E+00  -1.42920720786235E-06
     -5.56901344297031E-08  -1.48489734229205E-06   9.24563590750662E-18   0.00000000000000E+00   0.00000000000000E+00
      0.00000000000000E+00   0.00000000000000E+00   1.42948992864199E-06   5.54074136500564E-08   1.48489734229205E-06
     -9.24563590750670E-18
      9.35317372488781E-01
     -9.35317372488781E-01  -9.35317372488781E-01   0.00000000000000E+00   0.00000000000000E+00  -1.46234056089880E-06
     -5.72556161277220E-08  -1.51959617702652E-06   9.10929344082677E-18   0.00000000000000E+00   0.00000000000000E+00
      0.00000000000000E+00   0.00000000000000E+00   1.46263285535675E-06   5.69633216697675E-08   1.51959617702652E-06
     -9.10929344082679E-18
      9.51228499402362E-01
     -9.51228499402362E-01  -9.51228499402362E-01   0.00000000000000E+00   0.00000000000000E+00  -1.49173903748144E-06
     -5.86352414702732E-08  -1.55037427895172E-06   8.99237442443425E-18   0.00000000000000E+00   0.00000000000000E+00
      0.00000000000000E+00   0.00000000000000E+00   1.49203979387330E-06   5.83344850784129E-08   1.55037427895171E-06
     -8.99237442443426E-18
      9.80504972923349E-01
     -9.80504972923349E-01  -9.80504972923349E-01   0.00000000000000E+00   0.00000000000000E+00  -1.54439790559147E-06
     -6.10839982526802E-08  -1.60548190384415E-06   8.79185573558549E-18   0.00000000000000E+00   0.00000000000000E+00
      0.00000000000000E+00   0.00000000000000E+00   1.54471373617575E-06   6.07681676683984E-08   1.60548190384415E-06
     -8.79185573558547E-18
      1.00000000000000E+00
     -1.00000000000000E+00  -1.00000000000000E+00   0.00000000000000E+00   0.00000000000000E+00  -1.57853442624865E-06
     -6.26557151182546E-08  -1.64119014136691E-06   8.66759016872468E-18   0.00000000000000E+00   0.00000000000000E+00
      0.00000000000000E+00   0.00000000000000E+00   1.57885996751956E-06   6.23301738473466E-08   1.64119014136690E-06
     -8.66759016872467E-18
}
