DF-ISE text

Info {
  version   = 1.0
  type      = xyplot
  datasets  = [
    "time"
    "top OuterVoltage" "top InnerVoltage" "top QuasiFermiPotential" "top DisplacementCurrent" "top eCurrent"
    "top hCurrent" "top TotalCurrent" "top Charge" "bottom OuterVoltage" "bottom InnerVoltage"
    "bottom QuasiFermiPotential" "bottom DisplacementCurrent" "bottom eCurrent" "bottom hCurrent" "bottom TotalCurrent"
    "bottom Charge" ]
  functions = [
    Time
    OuterVoltage InnerVoltage QuasiFermiPotential DisplacementCurrent eCurrent
    hCurrent TotalCurrent Charge OuterVoltage InnerVoltage
    QuasiFermiPotential DisplacementCurrent eCurrent hCurrent TotalCurrent
    Charge ]
}

Data {
      0.00000000000000E+00
      0.00000000000000E+00   0.00000000000000E+00   0.00000000000000E+00   0.00000000000000E+00   3.92420136213555E-22
      6.21774124825379E-31   3.92420136835329E-22   6.50709366189857E-17   0.00000000000000E+00   0.00000000000000E+00
      0.00000000000000E+00   0.00000000000000E+00  -3.92420136238886E-22  -5.96443499874247E-31  -3.92420136835329E-22
     -6.50709366189857E-17
      0.00000000000000E+00
      0.00000000000000E+00   0.00000000000000E+00   0.00000000000000E+00   0.00000000000000E+00  -9.66710152245768E-18
      5.36555277191244E-28  -9.66710152192113E-18   6.50709039212658E-17   0.00000000000000E+00   0.00000000000000E+00
      0.00000000000000E+00   0.00000000000000E+00   9.66710152648087E-18  -4.55977123073631E-27   9.66710152192110E-18
     -6.50709039212659E-17
      1.00000000000000E-02
     -1.00000000000000E-02  -1.00000000000000E-02   0.00000000000000E+00   0.00000000000000E+00  -1.84284958173483E-16
     -8.00186939441475E-19  -1.85085145112925E-16   6.46763740577484E-17   0.00000000000000E+00   0.00000000000000E+00
      0.00000000000000E+00   0.00000000000000E+00   1.72464887909440E-16   1.26202572034849E-17   1.85085145112924E-16
     -6.46763740577485E-17
      2.89333333333333E-02
     -2.89333333333333E-02  -2.89333333333333E-02   0.00000000000000E+00   0.00000000000000E+00  -6.41766840021778E-16
     -3.24586797672008E-18  -6.45012707998498E-16   6.39268423182564E-17   0.00000000000000E+00   0.00000000000000E+00
      0.00000000000000E+00   0.00000000000000E+00   6.00981428520578E-16   4.40312794779210E-17   6.45012707998499E-16
     -6.39268423182564E-17
      6.27608888888889E-02
     -6.27608888888889E-02  -6.27608888888889E-02   0.00000000000000E+00   0.00000000000000E+00  -3.03784613004390E-15
     -7.00647086634408E-18  -3.04485260091024E-15   6.25793817487449E-17   0.00000000000000E+00   0.00000000000000E+00
      0.00000000000000E+00   0.00000000000000E+00   2.91022928064287E-15   1.34623320267377E-16   3.04485260091024E-15
     -6.25793817487449E-17
      1.12760888888889E-01
     -1.12760888888889E-01  -1.12760888888889E-01   0.00000000000000E+00   0.00000000000000E+00  -2.12650789062556E-14
     -8.51767010150962E-17  -2.13502556072707E-14   6.05683578839645E-17   0.00000000000000E+00   0.00000000000000E+00
      0.00000000000000E+00   0.00000000000000E+00   2.08273857658714E-14   5.22869841399280E-16   2.13502556072707E-14
     -6.05683578839643E-17
      1.37760888888889E-01
     -1.37760888888889E-01  -1.37760888888889E-01   0.00000000000000E+00   0.00000000000000E+00  -5.47813067591470E-14
     -2.15885612487916E-16  -5.49971923716349E-14   5.95542472740393E-17   0.00000000000000E+00   0.00000000000000E+00
      0.00000000000000E+00   0.00000000000000E+00   5.40131340150688E-14   9.84058356566073E-16   5.49971923716349E-14
     -5.95542472740393E-17
      1.59427555555556E-01
     -1.59427555555556E-01  -1.59427555555556E-01   0.00000000000000E+00   0.00000000000000E+00  -1.24083217460126E-13
     -4.90817187119832E-16  -1.24574034647246E-13   5.86707448520169E-17   0.00000000000000E+00   0.00000000000000E+00
      0.00000000000000E+00   0.00000000000000E+00   1.22844080098079E-13   1.72995454916662E-15   1.24574034647245E-13
     -5.86707448520170E-17
      1.68672000000000E-01
     -1.68672000000000E-01  -1.68672000000000E-01   0.00000000000000E+00   0.00000000000000E+00  -1.75839327884306E-13
     -7.31368069474704E-16  -1.76570695953781E-13   5.82924864806950E-17   0.00000000000000E+00   0.00000000000000E+00
      0.00000000000000E+00   0.00000000000000E+00   1.74321512642641E-13   2.24918331114040E-15   1.76570695953781E-13
     -5.82924864806950E-17
      1.86174814814815E-01
     -1.86174814814815E-01  -1.86174814814815E-01   0.00000000000000E+00   0.00000000000000E+00  -3.40190849362276E-13
     -1.36774302909331E-15  -3.41558592391370E-13   5.75741972807309E-17   0.00000000000000E+00   0.00000000000000E+00
      0.00000000000000E+00   0.00000000000000E+00   3.37963465529366E-13   3.59512686200424E-15   3.41558592391370E-13
     -5.75741972807309E-17
      2.17913252345679E-01
     -2.17913252345679E-01  -2.17913252345679E-01   0.00000000000000E+00   0.00000000000000E+00  -1.12560012210304E-12
     -4.64595423829833E-15  -1.13024607634134E-12   5.62646350482556E-17   0.00000000000000E+00   0.00000000000000E+00
      0.00000000000000E+00   0.00000000000000E+00   1.12112290120709E-12   9.12317513424295E-15   1.13024607634134E-12
     -5.62646350482555E-17
      2.30397037774486E-01
     -2.30397037774486E-01  -2.30397037774486E-01   0.00000000000000E+00   0.00000000000000E+00  -1.80201533083099E-12
     -7.52386689516455E-15  -1.80953919772616E-12   5.57470444359173E-17   0.00000000000000E+00   0.00000000000000E+00
      0.00000000000000E+00   0.00000000000000E+00   1.79610984299442E-12   1.34293547317343E-14   1.80953919772615E-12
     -5.57470444359173E-17
      2.52701401073953E-01
     -2.52701401073953E-01  -2.52701401073953E-01   0.00000000000000E+00   0.00000000000000E+00  -4.17655093456004E-12
     -1.78018243306463E-14  -4.19435275889069E-12   5.48187551810735E-17   0.00000000000000E+00   0.00000000000000E+00
      0.00000000000000E+00   0.00000000000000E+00   4.16681760216390E-12   2.75351567267836E-14   4.19435275889069E-12
     -5.48187551810736E-17
      2.72031849266825E-01
     -2.72031849266825E-01  -2.72031849266825E-01   0.00000000000000E+00   0.00000000000000E+00  -8.65058363242187E-12
     -3.75674438980519E-14  -8.68815107631992E-12   5.40105322673830E-17   0.00000000000000E+00   0.00000000000000E+00
      0.00000000000000E+00   0.00000000000000E+00   8.63547555359478E-12   5.26755227251307E-14   8.68815107631991E-12
     -5.40105322673830E-17
      3.05537959467804E-01
     -3.05537959467804E-01  -3.05537959467804E-01   0.00000000000000E+00   0.00000000000000E+00  -3.05186076245427E-11
     -1.37118643538816E-13  -3.06557262680815E-11   5.26010967427223E-17   0.00000000000000E+00   0.00000000000000E+00
      0.00000000000000E+00   0.00000000000000E+00   3.04856145517790E-11   1.70111716302400E-13   3.06557262680814E-11
     -5.26010967427223E-17
      3.30537959467804E-01
     -3.30537959467804E-01  -3.30537959467804E-01   0.00000000000000E+00   0.00000000000000E+00  -7.80254397957591E-11
     -3.60283087963883E-13  -7.83857228837230E-11   5.15416294212237E-17   0.00000000000000E+00   0.00000000000000E+00
      0.00000000000000E+00   0.00000000000000E+00   7.79652035192182E-11   4.20519364504705E-13   7.83857228837229E-11
     -5.15416294212237E-17
      3.47871292801137E-01
     -3.47871292801137E-01  -3.47871292801137E-01   0.00000000000000E+00   0.00000000000000E+00  -1.49339852448247E-10
     -7.03909666161644E-13  -1.50043762114408E-10   5.08022146849933E-17   0.00000000000000E+00   0.00000000000000E+00
      0.00000000000000E+00   0.00000000000000E+00   1.49247407350054E-10   7.96354764354924E-13   1.50043762114409E-10
     -5.08022146849934E-17
      3.77915737245581E-01
     -3.77915737245581E-01  -3.77915737245581E-01   0.00000000000000E+00   0.00000000000000E+00  -4.57556359676220E-10
     -2.24716653268764E-12  -4.59803526208907E-10   4.95068359317304E-17   0.00000000000000E+00   0.00000000000000E+00
      0.00000000000000E+00   0.00000000000000E+00   4.57357873327989E-10   2.44565288091798E-12   4.59803526208907E-10
     -4.95068359317304E-17
      3.83524033541878E-01
     -3.83524033541878E-01  -3.83524033541878E-01   0.00000000000000E+00   0.00000000000000E+00  -5.63237254845177E-10
     -2.79076170523365E-12  -5.66028016550411E-10   4.92622492401407E-17   0.00000000000000E+00   0.00000000000000E+00
      0.00000000000000E+00   0.00000000000000E+00   5.63007705591102E-10   3.02031095930771E-12   5.66028016550410E-10
     -4.92622492401407E-17
      3.88833220702372E-01
     -3.88833220702372E-01  -3.88833220702372E-01   0.00000000000000E+00   0.00000000000000E+00  -6.85357647324871E-10
     -3.42598911694492E-12  -6.88783636441816E-10   4.90295924993902E-17   0.00000000000000E+00   0.00000000000000E+00
      0.00000000000000E+00   0.00000000000000E+00   6.85094052377489E-10   3.68958406432687E-12   6.88783636441816E-10
     -4.90295924993902E-17
      3.93859251214306E-01
     -3.93859251214306E-01  -3.93859251214306E-01   0.00000000000000E+00   0.00000000000000E+00  -8.24863548336628E-10
     -4.15999230963732E-12  -8.29023540646265E-10   4.88081905880311E-17   0.00000000000000E+00   0.00000000000000E+00
      0.00000000000000E+00   0.00000000000000E+00   8.24562931085290E-10   4.46060956097603E-12   8.29023540646266E-10
     -4.88081905880311E-17
      4.03375202316901E-01
     -4.03375202316901E-01  -4.03375202316901E-01   0.00000000000000E+00   0.00000000000000E+00  -1.16962625922728E-09
     -6.00746270988094E-12  -1.17563372193716E-09   4.83852973185490E-17   0.00000000000000E+00   0.00000000000000E+00
      0.00000000000000E+00   0.00000000000000E+00   1.16924032708441E-09   6.39339485274910E-12   1.17563372193716E-09
     -4.83852973185490E-17
      4.20884552345677E-01
     -4.20884552345677E-01  -4.20884552345677E-01   0.00000000000000E+00   0.00000000000000E+00  -2.20820367601271E-09
     -1.18098978438748E-11  -2.22001357385659E-09   4.75897678490008E-17   0.00000000000000E+00   0.00000000000000E+00
      0.00000000000000E+00   0.00000000000000E+00   2.20759206584555E-09   1.24215080110383E-11   2.22001357385659E-09
     -4.75897678490008E-17
      4.36292780370999E-01
     -4.36292780370999E-01  -4.36292780370999E-01   0.00000000000000E+00   0.00000000000000E+00  -3.82191746244033E-09
     -2.13990427363440E-11  -3.84331650517667E-09   4.68614024760046E-17   0.00000000000000E+00   0.00000000000000E+00
      0.00000000000000E+00   0.00000000000000E+00   3.82100435675659E-09   2.23121484200873E-11   3.84331650517667E-09
     -4.68614024760046E-17
      4.43277843742478E-01
     -4.43277843742478E-01  -4.43277843742478E-01   0.00000000000000E+00   0.00000000000000E+00  -4.87962005830147E-09
     -2.80115919391163E-11  -4.90763165024059E-09   4.65185782101426E-17   0.00000000000000E+00   0.00000000000000E+00
      0.00000000000000E+00   0.00000000000000E+00   4.87852871752368E-09   2.91029327169064E-11   4.90763165024059E-09
     -4.65185782101426E-17
      4.49797236222526E-01
     -4.49797236222526E-01  -4.49797236222526E-01   0.00000000000000E+00   0.00000000000000E+00  -6.11130486862495E-09
     -3.60099002924726E-11  -6.14731476891742E-09   4.61894005734938E-17   0.00000000000000E+00   0.00000000000000E+00
      0.00000000000000E+00   0.00000000000000E+00   6.11001963249169E-09   3.72951364257402E-11   6.14731476891743E-09
     -4.61894005734938E-17
      4.55968927770304E-01
     -4.55968927770304E-01  -4.55968927770304E-01   0.00000000000000E+00   0.00000000000000E+00  -7.54039429904877E-09
     -4.56688148900880E-11  -7.58606311393885E-09   4.58680599729823E-17   0.00000000000000E+00   0.00000000000000E+00
      0.00000000000000E+00   0.00000000000000E+00   7.53889871363051E-09   4.71644003083479E-11   7.58606311393885E-09
     -4.58680599729822E-17
      4.67653997100764E-01
     -4.67653997100764E-01  -4.67653997100764E-01   0.00000000000000E+00   0.00000000000000E+00  -1.11266119814337E-08
     -7.15772219409458E-11  -1.11981892033746E-08   4.52279525353689E-17   0.00000000000000E+00   0.00000000000000E+00
      0.00000000000000E+00   0.00000000000000E+00   1.11246410237496E-08   7.35481796250570E-11   1.11981892033746E-08
     -4.52279525353689E-17
      4.72795427606167E-01
     -4.72795427606167E-01  -4.72795427606167E-01   0.00000000000000E+00   0.00000000000000E+00  -1.31515513357139E-08
     -8.72012561784511E-11  -1.32387525918923E-08   4.49306152235900E-17   0.00000000000000E+00   0.00000000000000E+00
      0.00000000000000E+00   0.00000000000000E+00   1.31493381194561E-08   8.94144724362430E-11   1.32387525918923E-08
     -4.49306152235900E-17
      4.82529869363062E-01
     -4.82529869363062E-01  -4.82529869363062E-01   0.00000000000000E+00   0.00000000000000E+00  -1.79192874291290E-08
     -1.26652626414026E-10  -1.80459400555430E-08   4.43359523921107E-17   0.00000000000000E+00   0.00000000000000E+00
      0.00000000000000E+00   0.00000000000000E+00   1.79165616081197E-08   1.29378447423245E-10   1.80459400555430E-08
     -4.43359523921107E-17
      4.91485555779406E-01
     -4.91485555779406E-01  -4.91485555779406E-01   0.00000000000000E+00   0.00000000000000E+00  -2.36108840077806E-08
     -1.78388877237208E-10  -2.37892728850178E-08   4.37461116011965E-17   0.00000000000000E+00   0.00000000000000E+00
      0.00000000000000E+00   0.00000000000000E+00   2.36076316792765E-08   1.81641205741286E-10   2.37892728850178E-08
     -4.37461116011964E-17
      4.99844196434660E-01
     -4.99844196434660E-01  -4.99844196434660E-01   0.00000000000000E+00   0.00000000000000E+00  -3.03056949284545E-08
     -2.45356859435425E-10  -3.05510517878900E-08   4.31523913559256E-17   0.00000000000000E+00   0.00000000000000E+00
      0.00000000000000E+00   0.00000000000000E+00   3.03019183626441E-08   2.49133425245856E-10   3.05510517878900E-08
     -4.31523913559257E-17
      5.07645594379564E-01
     -5.07645594379564E-01  -5.07645594379564E-01   0.00000000000000E+00   0.00000000000000E+00  -3.79950795966248E-08
     -3.30036228332141E-10  -3.83251158249570E-08   4.25555199564744E-17   0.00000000000000E+00   0.00000000000000E+00
      0.00000000000000E+00   0.00000000000000E+00   3.79908056185635E-08   3.34310206393508E-10   3.83251158249570E-08
     -4.25555199564744E-17
      5.14926899128141E-01
     -5.14926899128141E-01  -5.14926899128141E-01   0.00000000000000E+00   0.00000000000000E+00  -4.66448628453926E-08
     -4.34787368832742E-10  -4.70796502142253E-08   4.19571847599848E-17   0.00000000000000E+00   0.00000000000000E+00
      0.00000000000000E+00   0.00000000000000E+00   4.66401429566109E-08   4.39507257614395E-10   4.70796502142253E-08
     -4.19571847599849E-17
      5.28518667992152E-01
     -5.28518667992152E-01  -5.28518667992152E-01   0.00000000000000E+00   0.00000000000000E+00  -6.73862570633211E-08
     -7.24821784047003E-10  -6.81110788473681E-08   4.07220921032203E-17   0.00000000000000E+00   0.00000000000000E+00
      0.00000000000000E+00   0.00000000000000E+00   6.73808762997098E-08   7.30202547658375E-10   6.81110788473681E-08
     -4.07220921032202E-17
      5.34770881669597E-01
     -5.34770881669597E-01  -5.34770881669597E-01   0.00000000000000E+00   0.00000000000000E+00  -7.93061905515113E-08
     -9.15191521441212E-10  -8.02213820729525E-08   4.00981575495431E-17   0.00000000000000E+00   0.00000000000000E+00
      0.00000000000000E+00   0.00000000000000E+00   7.93006550624092E-08   9.20727010543308E-10   8.02213820729525E-08
     -4.00981575495431E-17
      5.46608406232225E-01
     -5.46608406232225E-01  -5.46608406232225E-01   0.00000000000000E+00   0.00000000000000E+00  -1.06825604027397E-07
     -1.41735677886684E-09  -1.08242960806263E-07   3.88145645929954E-17   0.00000000000000E+00   0.00000000000000E+00
      0.00000000000000E+00   0.00000000000000E+00   1.06820252921539E-07   1.42270788472413E-09   1.08242960806263E-07
     -3.88145645929953E-17
      5.68073784105792E-01
     -5.68073784105792E-01  -5.68073784105792E-01   0.00000000000000E+00   0.00000000000000E+00  -1.77340588416209E-07
     -3.07603187865057E-09  -1.80416620294859E-07   3.61384891053845E-17   0.00000000000000E+00   0.00000000000000E+00
      0.00000000000000E+00   0.00000000000000E+00   1.77338651176628E-07   3.07796911823151E-09   1.80416620294859E-07
     -3.61384891053845E-17
      5.87249521672845E-01
     -5.87249521672845E-01  -5.87249521672845E-01   0.00000000000000E+00   0.00000000000000E+00  -2.69426944329076E-07
     -5.97602691521031E-09  -2.75402971244286E-07   3.33943829759222E-17   0.00000000000000E+00   0.00000000000000E+00
      0.00000000000000E+00   0.00000000000000E+00   2.69434857101124E-07   5.96811414316170E-09   2.75402971244286E-07
     -3.33943829759221E-17
      5.95942522703243E-01
     -5.95942522703243E-01  -5.95942522703243E-01   0.00000000000000E+00   0.00000000000000E+00  -3.22247427373072E-07
     -7.98329109720839E-09  -3.30230718470280E-07   3.20609386107106E-17   0.00000000000000E+00   0.00000000000000E+00
      0.00000000000000E+00   0.00000000000000E+00   3.22263418655060E-07   7.96729981521988E-09   3.30230718470280E-07
     -3.20609386107106E-17
      6.03940083651208E-01
     -6.03940083651208E-01  -6.03940083651208E-01   0.00000000000000E+00   0.00000000000000E+00  -3.77718623135892E-07
     -1.03427216056627E-08  -3.88061344741554E-07   3.07979446737920E-17   0.00000000000000E+00   0.00000000000000E+00
      0.00000000000000E+00   0.00000000000000E+00   3.77744843231244E-07   1.03165015103102E-08   3.88061344741554E-07
     -3.07979446737921E-17
      6.18868864087411E-01
     -6.18868864087411E-01  -6.18868864087411E-01   0.00000000000000E+00   0.00000000000000E+00  -5.00351618545346E-07
     -1.64087269785463E-08  -5.16760345523892E-07   2.83851770459291E-17   0.00000000000000E+00   0.00000000000000E+00
      0.00000000000000E+00   0.00000000000000E+00   5.00406289940946E-07   1.63540555829459E-08   5.16760345523892E-07
     -2.83851770459292E-17
      6.45939719278391E-01
     -6.45939719278391E-01  -6.45939719278391E-01   0.00000000000000E+00   0.00000000000000E+00  -7.90411167788148E-07
     -3.48382763871323E-08  -8.25249444175281E-07   2.40480350151121E-17   0.00000000000000E+00   0.00000000000000E+00
      0.00000000000000E+00   0.00000000000000E+00   7.90560917063228E-07   3.46885271120538E-08   8.25249444175282E-07
     -2.40480350151121E-17
      6.69040182374694E-01
     -6.69040182374694E-01  -6.69040182374694E-01   0.00000000000000E+00   0.00000000000000E+00  -1.10500095676172E-06
     -6.02163423869669E-08  -1.16521729914869E-06   2.06583883805276E-17   0.00000000000000E+00   0.00000000000000E+00
      0.00000000000000E+00   0.00000000000000E+00   1.10529035364393E-06   5.99269455047571E-08   1.16521729914869E-06
     -2.06583883805276E-17
      6.79666395398994E-01
     -6.79666395398994E-01  -6.79666395398994E-01   0.00000000000000E+00   0.00000000000000E+00  -1.26740595475563E-06
     -7.51482626434218E-08  -1.34255421739905E-06   1.92525542847295E-17   0.00000000000000E+00   0.00000000000000E+00
      0.00000000000000E+00   0.00000000000000E+00   1.26777985840900E-06   7.47743589900462E-08   1.34255421739905E-06
     -1.92525542847295E-17
      6.99218627363705E-01
     -6.99218627363705E-01  -6.99218627363705E-01   0.00000000000000E+00   0.00000000000000E+00  -1.58772153252661E-06
     -1.07674926170266E-07  -1.69539645869688E-06   1.69559608299908E-17   0.00000000000000E+00   0.00000000000000E+00
      0.00000000000000E+00   0.00000000000000E+00   1.58828304649703E-06   1.07113412199845E-07   1.69539645869688E-06
     -1.69559608299908E-17
      7.34673341326381E-01
     -7.34673341326381E-01  -7.34673341326381E-01   0.00000000000000E+00   0.00000000000000E+00  -2.20205960040283E-06
     -1.79257761134146E-07  -2.38131736153698E-06   1.37348171595562E-17   0.00000000000000E+00   0.00000000000000E+00
      0.00000000000000E+00   0.00000000000000E+00   2.20304403723951E-06   1.78273324297469E-07   2.38131736153698E-06
     -1.37348171595562E-17
      7.47173341326381E-01
     -7.47173341326381E-01  -7.47173341326381E-01   0.00000000000000E+00   0.00000000000000E+00  -2.41769379963087E-06
     -2.06671909884886E-07  -2.62436570951576E-06   1.28553441934601E-17   0.00000000000000E+00   0.00000000000000E+00
      0.00000000000000E+00   0.00000000000000E+00   2.41884256292097E-06   2.05523146594784E-07   2.62436570951576E-06
     -1.28553441934601E-17
      7.70173341326381E-01
     -7.70173341326381E-01  -7.70173341326381E-01   0.00000000000000E+00   0.00000000000000E+00  -2.80117250504783E-06
     -2.57739899986033E-07  -3.05891240503387E-06   1.15171873186631E-17   0.00000000000000E+00   0.00000000000000E+00
      0.00000000000000E+00   0.00000000000000E+00   2.80262983588836E-06   2.56282569145511E-07   3.05891240503387E-06
     -1.15171873186632E-17
      7.91026674659715E-01
     -7.91026674659715E-01  -7.91026674659715E-01   0.00000000000000E+00   0.00000000000000E+00  -3.12836828835433E-06
     -3.03265415414109E-07  -3.43163370376844E-06   1.05561823067815E-17   0.00000000000000E+00   0.00000000000000E+00
      0.00000000000000E+00   0.00000000000000E+00   3.13010289220222E-06   3.01530811566217E-07   3.43163370376844E-06
     -1.05561823067816E-17
      8.09933696881937E-01
     -8.09933696881937E-01  -8.09933696881937E-01   0.00000000000000E+00   0.00000000000000E+00  -3.40638697670953E-06
     -3.43104043189274E-07  -3.74949101989881E-06   9.84298597641361E-18   0.00000000000000E+00   0.00000000000000E+00
      0.00000000000000E+00   0.00000000000000E+00   3.40836563027421E-06   3.41125389624589E-07   3.74949101989880E-06
     -9.84298597641362E-18
      8.26823970067122E-01
     -8.26823970067122E-01  -8.26823970067122E-01   0.00000000000000E+00   0.00000000000000E+00  -3.64021880111088E-06
     -3.77302195814701E-07  -4.01752099692558E-06   9.30419190935277E-18   0.00000000000000E+00   0.00000000000000E+00
      0.00000000000000E+00   0.00000000000000E+00   3.64240787251766E-06   3.75113124407919E-07   4.01752099692558E-06
     -9.30419190935269E-18
      8.42363021397492E-01
     -8.42363021397492E-01  -8.42363021397492E-01   0.00000000000000E+00   0.00000000000000E+00  -3.84419561160143E-06
     -4.07578812030099E-07  -4.25177442363153E-06   8.87338609686037E-18   0.00000000000000E+00   0.00000000000000E+00
      0.00000000000000E+00   0.00000000000000E+00   3.84657161488432E-06   4.05202808747207E-07   4.25177442363153E-06
     -8.87338609686030E-18
      8.56658948621433E-01
     -8.56658948621433E-01  -8.56658948621433E-01   0.00000000000000E+00   0.00000000000000E+00  -4.02330369932445E-06
     -4.34464813149087E-07  -4.45776851247354E-06   8.52171036779195E-18   0.00000000000000E+00   0.00000000000000E+00
      0.00000000000000E+00   0.00000000000000E+00   4.02584616847492E-06   4.31922343998626E-07   4.45776851247355E-06
     -8.52171036779196E-18
      8.69811201667459E-01
     -8.69811201667459E-01  -8.69811201667459E-01   0.00000000000000E+00   0.00000000000000E+00  -4.18152201595799E-06
     -4.58423746813886E-07  -4.63994576277187E-06   8.22969047638765E-18   0.00000000000000E+00   0.00000000000000E+00
      0.00000000000000E+00   0.00000000000000E+00   4.18421317634433E-06   4.55732586427543E-07   4.63994576277187E-06
     -8.22969047638765E-18
      8.94011347272145E-01
     -8.94011347272145E-01  -8.94011347272145E-01   0.00000000000000E+00   0.00000000000000E+00  -4.45800625624497E-06
     -5.00702979901380E-07  -4.95870923614635E-06   7.75686700517080E-18   0.00000000000000E+00   0.00000000000000E+00
      0.00000000000000E+00   0.00000000000000E+00   4.46096055625875E-06   4.97748679887597E-07   4.95870923614635E-06
     -7.75686700517092E-18
      9.15952812620395E-01
     -9.15952812620395E-01  -9.15952812620395E-01   0.00000000000000E+00   0.00000000000000E+00  -4.69417444049983E-06
     -5.37171698244063E-07  -5.23134613874389E-06   7.38650842087991E-18   0.00000000000000E+00   0.00000000000000E+00
      0.00000000000000E+00   0.00000000000000E+00   4.69735643940693E-06   5.33989699336962E-07   5.23134613874389E-06
     -7.38650842087987E-18
      9.25899610244935E-01
     -9.25899610244935E-01  -9.25899610244935E-01   0.00000000000000E+00   0.00000000000000E+00  -4.79714067868467E-06
     -5.53158927681522E-07  -5.35029960636619E-06   7.23372950798852E-18   0.00000000000000E+00   0.00000000000000E+00
      0.00000000000000E+00   0.00000000000000E+00   4.80042269705171E-06   5.49876909314480E-07   5.35029960636619E-06
     -7.23372950798846E-18
      9.44466965810742E-01
     -9.44466965810742E-01  -9.44466965810742E-01   0.00000000000000E+00   0.00000000000000E+00  -4.98304089685799E-06
     -5.82139123258501E-07  -5.56518002011649E-06   6.97014905669779E-18   0.00000000000000E+00   0.00000000000000E+00
      0.00000000000000E+00   0.00000000000000E+00   4.98650452043975E-06   5.78675499676724E-07   5.56518002011647E-06
     -6.97014905669777E-18
      9.61548932931285E-01
     -9.61548932931285E-01  -9.61548932931285E-01   0.00000000000000E+00   0.00000000000000E+00  -5.14728059256139E-06
     -6.07851332760957E-07  -5.75513192532234E-06   6.74948207247469E-18   0.00000000000000E+00   0.00000000000000E+00
      0.00000000000000E+00   0.00000000000000E+00   5.15090565476920E-06   6.04226270553138E-07   5.75513192532234E-06
     -6.74948207247476E-18
      9.77264342682185E-01
     -9.77264342682185E-01  -9.77264342682185E-01   0.00000000000000E+00   0.00000000000000E+00  -5.29302013382700E-06
     -6.30740400784680E-07  -5.92376053461168E-06   6.56253431736493E-18   0.00000000000000E+00   0.00000000000000E+00
      0.00000000000000E+00   0.00000000000000E+00   5.29678914777602E-06   6.26971386835663E-07   5.92376053461168E-06
     -6.56253431736500E-18
      1.00000000000000E+00
     -1.00000000000000E+00  -1.00000000000000E+00   0.00000000000000E+00   0.00000000000000E+00  -5.49539546636339E-06
     -6.62621109291044E-07  -6.15801657565444E-06   6.31570628273523E-18   0.00000000000000E+00   0.00000000000000E+00
      0.00000000000000E+00   0.00000000000000E+00   5.49936534318804E-06   6.58651232466404E-07   6.15801657565445E-06
     -6.31570628273523E-18
}
