DF-ISE text

Info {
  version   = 1.0
  type      = xyplot
  datasets  = [
    "time"
    "top OuterVoltage" "top InnerVoltage" "top QuasiFermiPotential" "top DisplacementCurrent" "top eCurrent"
    "top hCurrent" "top TotalCurrent" "top Charge" "bottom OuterVoltage" "bottom InnerVoltage"
    "bottom QuasiFermiPotential" "bottom DisplacementCurrent" "bottom eCurrent" "bottom hCurrent" "bottom TotalCurrent"
    "bottom Charge" ]
  functions = [
    Time
    OuterVoltage InnerVoltage QuasiFermiPotential DisplacementCurrent eCurrent
    hCurrent TotalCurrent Charge OuterVoltage InnerVoltage
    QuasiFermiPotential DisplacementCurrent eCurrent hCurrent TotalCurrent
    Charge ]
}

Data {
      0.00000000000000E+00
      0.00000000000000E+00   0.00000000000000E+00   0.00000000000000E+00   0.00000000000000E+00   8.28916597473946E-23
     -7.88727932937253E-30   8.28916518601152E-23   3.44693531630934E-17   0.00000000000000E+00   0.00000000000000E+00
      0.00000000000000E+00   0.00000000000000E+00  -8.28916596170684E-23   7.75695341395925E-30  -8.28916518601150E-23
     -3.44693531630933E-17
      0.00000000000000E+00
      0.00000000000000E+00   0.00000000000000E+00   0.00000000000000E+00   0.00000000000000E+00   7.47449382438662E-22
      2.37802047564397E-31   7.47449382676464E-22   3.44703004276819E-17   0.00000000000000E+00   0.00000000000000E+00
      0.00000000000000E+00   0.00000000000000E+00  -7.47449382578889E-22  -9.75733669529369E-32  -7.47449382676463E-22
     -3.44703004276820E-17
      1.00000000000000E-02
     -1.00000000000000E-02  -1.00000000000000E-02   0.00000000000000E+00   0.00000000000000E+00  -8.09876658918376E-15
     -8.18222164402754E-19  -8.09958481134816E-15   3.43479846340208E-17   0.00000000000000E+00   0.00000000000000E+00
      0.00000000000000E+00   0.00000000000000E+00   8.06303972562424E-15   3.65450857239347E-17   8.09958481134818E-15
     -3.43479846340208E-17
      2.89333333333333E-02
     -2.89333333333333E-02  -2.89333333333333E-02   0.00000000000000E+00   0.00000000000000E+00  -3.32881764935962E-14
     -4.16269477435667E-18  -3.32923391883705E-14   3.41201664214779E-17   0.00000000000000E+00   0.00000000000000E+00
      0.00000000000000E+00   0.00000000000000E+00   3.31625411914343E-14   1.29797996936162E-16   3.32923391883705E-14
     -3.41201664214779E-17
      6.42755555555556E-02
     -6.42755555555556E-02  -6.42755555555556E-02   0.00000000000000E+00   0.00000000000000E+00  -1.57584770275766E-13
     -1.77893629570943E-17  -1.57602559638723E-13   3.37081782814706E-17   0.00000000000000E+00   0.00000000000000E+00
      0.00000000000000E+00   0.00000000000000E+00   1.57159505527658E-13   4.43054111064820E-16   1.57602559638723E-13
     -3.37081782814706E-17
      1.14275555555556E-01
     -1.14275555555556E-01  -1.14275555555556E-01   0.00000000000000E+00   0.00000000000000E+00  -9.68149858501531E-13
     -1.18024389392792E-16  -9.68267882890924E-13   3.31548307132904E-17   0.00000000000000E+00   0.00000000000000E+00
      0.00000000000000E+00   0.00000000000000E+00   9.66620765147586E-13   1.64711774333880E-15   9.68267882890925E-13
     -3.31548307132904E-17
      1.64275555555556E-01
     -1.64275555555556E-01  -1.64275555555556E-01   0.00000000000000E+00   0.00000000000000E+00  -5.39589035974227E-12
     -6.40204350664200E-16  -5.39653056409294E-12   3.26349953601139E-17   0.00000000000000E+00   0.00000000000000E+00
      0.00000000000000E+00   0.00000000000000E+00   5.39097413466110E-12   5.55642943183028E-15   5.39653056409293E-12
     -3.26349953601139E-17
      1.89275555555556E-01
     -1.89275555555556E-01  -1.89275555555556E-01   0.00000000000000E+00   0.00000000000000E+00  -1.24990103378706E-11
     -1.66927154727435E-15  -1.25006796094178E-11   3.23866509690694E-17   0.00000000000000E+00   0.00000000000000E+00
      0.00000000000000E+00   0.00000000000000E+00   1.24902859059689E-11   1.03937034489911E-14   1.25006796094178E-11
     -3.23866509690694E-17
      2.10608888888889E-01
     -2.10608888888889E-01  -2.10608888888889E-01   0.00000000000000E+00   0.00000000000000E+00  -2.53510145765692E-11
     -3.79745339732638E-15  -2.53548120299666E-11   3.21800171701889E-17   0.00000000000000E+00   0.00000000000000E+00
      0.00000000000000E+00   0.00000000000000E+00   2.53367985927272E-11   1.80134372393327E-14   2.53548120299666E-11
     -3.21800171701889E-17
      2.29097777777778E-01
     -2.29097777777778E-01  -2.29097777777778E-01   0.00000000000000E+00   0.00000000000000E+00  -4.64302218313105E-11
     -7.75309498142096E-15  -4.64379749262920E-11   3.20041726179281E-17   0.00000000000000E+00   0.00000000000000E+00
      0.00000000000000E+00   0.00000000000000E+00   4.64085224978240E-11   2.94524284680089E-14   4.64379749262920E-11
     -3.20041726179281E-17
      2.45121481481481E-01
     -2.45121481481481E-01  -2.45121481481481E-01   0.00000000000000E+00   0.00000000000000E+00  -7.79436642965030E-11
     -1.43996869239247E-14  -7.79580639834269E-11   3.18535255728474E-17   0.00000000000000E+00   0.00000000000000E+00
      0.00000000000000E+00   0.00000000000000E+00   7.79123639502709E-11   4.57000331561212E-14   7.79580639834270E-11
     -3.18535255728474E-17
      2.73750498765432E-01
     -2.73750498765432E-01  -2.73750498765432E-01   0.00000000000000E+00   0.00000000000000E+00  -1.93349448413070E-10
     -4.35492319764298E-14  -1.93392997645047E-10   3.15856004380035E-17   0.00000000000000E+00   0.00000000000000E+00
      0.00000000000000E+00   0.00000000000000E+00   1.93289315947203E-10   1.03681697843898E-13   1.93392997645047E-10
     -3.15856004380035E-17
      2.85202105679012E-01
     -2.85202105679012E-01  -2.85202105679012E-01   0.00000000000000E+00   0.00000000000000E+00  -2.76124362946119E-10
     -6.78392000227687E-14  -2.76192202146142E-10   3.14775129376375E-17   0.00000000000000E+00   0.00000000000000E+00
      0.00000000000000E+00   0.00000000000000E+00   2.76046387369696E-10   1.45814776445892E-13   2.76192202146142E-10
     -3.14775129376375E-17
      3.05967686215638E-01
     -3.05967686215638E-01  -3.05967686215638E-01   0.00000000000000E+00   0.00000000000000E+00  -5.20548645103625E-10
     -1.51340176524608E-13  -5.20699985280150E-10   3.12768611086231E-17   0.00000000000000E+00   0.00000000000000E+00
      0.00000000000000E+00   0.00000000000000E+00   5.20424194562665E-10   2.75790717485131E-13   5.20699985280150E-10
     -3.12768611086231E-17
      3.23410773866403E-01
     -3.23410773866403E-01  -3.23410773866403E-01   0.00000000000000E+00   0.00000000000000E+00  -8.74412488712462E-10
     -2.97055155807108E-13  -8.74709543868269E-10   3.10995293506814E-17   0.00000000000000E+00   0.00000000000000E+00
      0.00000000000000E+00   0.00000000000000E+00   8.74229200324468E-10   4.80343543800848E-13   8.74709543868269E-10
     -3.10995293506814E-17
      3.30969445181735E-01
     -3.30969445181735E-01  -3.30969445181735E-01   0.00000000000000E+00   0.00000000000000E+00  -1.08991967288649E-09
     -3.97871418436282E-13  -1.09031754430493E-09   3.10187241423351E-17   0.00000000000000E+00   0.00000000000000E+00
      0.00000000000000E+00   0.00000000000000E+00   1.08970336685114E-09   6.14177453788202E-13   1.09031754430493E-09
     -3.10187241423350E-17
      3.37923422791840E-01
     -3.37923422791840E-01  -3.37923422791840E-01   0.00000000000000E+00   0.00000000000000E+00  -1.33139006580516E-09
     -5.20580093309536E-13  -1.33191064589847E-09   3.09415532717552E-17   0.00000000000000E+00   0.00000000000000E+00
      0.00000000000000E+00   0.00000000000000E+00   1.33113849651582E-09   7.72149382644299E-13   1.33191064589847E-09
     -3.09415532717552E-17
      3.44413801894605E-01
     -3.44413801894605E-01  -3.44413801894605E-01   0.00000000000000E+00   0.00000000000000E+00  -1.60108859918882E-09
     -6.69022049675827E-13  -1.60175762123850E-09   3.08665911863801E-17   0.00000000000000E+00   0.00000000000000E+00
      0.00000000000000E+00   0.00000000000000E+00   1.60079932479851E-09   9.58296439989511E-13   1.60175762123850E-09
     -3.08665911863801E-17
      3.50558027445222E-01
     -3.50558027445222E-01  -3.50558027445222E-01   0.00000000000000E+00   0.00000000000000E+00  -1.90231178706157E-09
     -8.48345333033390E-13  -1.90316013239461E-09   3.07925593884113E-17   0.00000000000000E+00   0.00000000000000E+00
      0.00000000000000E+00   0.00000000000000E+00   1.90198202723669E-09   1.17810515792319E-12   1.90316013239461E-09
     -3.07925593884112E-17
      3.56374560966473E-01
     -3.56374560966473E-01  -3.56374560966473E-01   0.00000000000000E+00   0.00000000000000E+00  -2.23496334938548E-09
     -1.06216971113100E-12  -2.23602551909661E-09   3.07192901994155E-17   0.00000000000000E+00   0.00000000000000E+00
      0.00000000000000E+00   0.00000000000000E+00   2.23459049449631E-09   1.43502460030044E-12   2.23602551909661E-09
     -3.07192901994155E-17
      3.67387197766709E-01
     -3.67387197766709E-01  -3.67387197766709E-01   0.00000000000000E+00   0.00000000000000E+00  -3.01613202533488E-09
     -1.62550291651063E-12  -3.01775752825139E-09   3.05704184079760E-17   0.00000000000000E+00   0.00000000000000E+00
      0.00000000000000E+00   0.00000000000000E+00   3.01566318388965E-09   2.09434436174247E-12   3.01775752825139E-09
     -3.05704184079759E-17
      3.85007416647085E-01
     -3.85007416647085E-01  -3.85007416647085E-01   0.00000000000000E+00   0.00000000000000E+00  -4.79975179148873E-09
     -3.21011301385004E-12  -4.80296190450258E-09   3.02965747111819E-17   0.00000000000000E+00   0.00000000000000E+00
      0.00000000000000E+00   0.00000000000000E+00   4.79908240304868E-09   3.87950145388851E-12   4.80296190450257E-09
     -3.02965747111820E-17
      4.00043336758340E-01
     -4.00043336758340E-01  -4.00043336758340E-01   0.00000000000000E+00   0.00000000000000E+00  -7.03059865692378E-09
     -5.73459950096706E-12  -7.03633325642475E-09   3.00161204926613E-17   0.00000000000000E+00   0.00000000000000E+00
      0.00000000000000E+00   0.00000000000000E+00   7.02970166244441E-09   6.63159398033626E-12   7.03633325642474E-09
     -3.00161204926613E-17
      4.26907514023782E-01
     -4.26907514023782E-01  -4.26907514023782E-01   0.00000000000000E+00   0.00000000000000E+00  -1.34587798380760E-08
     -1.61388908973223E-11  -1.34749187289733E-08   2.93586663080528E-17   0.00000000000000E+00   0.00000000000000E+00
      0.00000000000000E+00   0.00000000000000E+00   1.34573096437672E-08   1.76090852061476E-11   1.34749187289733E-08
     -2.93586663080529E-17
      4.38011373960165E-01
     -4.38011373960165E-01  -4.38011373960165E-01   0.00000000000000E+00   0.00000000000000E+00  -1.74024593393421E-08
     -2.47230080771026E-11  -1.74271823474192E-08   2.90076028819598E-17   0.00000000000000E+00   0.00000000000000E+00
      0.00000000000000E+00   0.00000000000000E+00   1.74006779710174E-08   2.65043764018034E-11   1.74271823474192E-08
     -2.90076028819598E-17
      4.42897072332173E-01
     -4.42897072332173E-01  -4.42897072332173E-01   0.00000000000000E+00   0.00000000000000E+00  -1.94474107309693E-08
     -2.98169636700805E-11  -1.94772276946394E-08   2.88347609566507E-17   0.00000000000000E+00   0.00000000000000E+00
      0.00000000000000E+00   0.00000000000000E+00   1.94454773838849E-08   3.17503107544721E-11   1.94772276946394E-08
     -2.88347609566507E-17
      4.52147327916509E-01
     -4.52147327916509E-01  -4.52147327916509E-01   0.00000000000000E+00   0.00000000000000E+00  -2.39249888784497E-08
     -4.24833650405430E-11  -2.39674722434903E-08   2.84726524571838E-17   0.00000000000000E+00   0.00000000000000E+00
      0.00000000000000E+00   0.00000000000000E+00   2.39227423511104E-08   4.47298923798477E-11   2.39674722434903E-08
     -2.84726524571837E-17
      4.69167798191687E-01
     -4.69167798191687E-01  -4.69167798191687E-01   0.00000000000000E+00   0.00000000000000E+00  -3.46751148897097E-08
     -8.12473787704479E-11  -3.47563622684802E-08   2.76686358690547E-17   0.00000000000000E+00   0.00000000000000E+00
      0.00000000000000E+00   0.00000000000000E+00   3.46722120033698E-08   8.41502651104262E-11   3.47563622684803E-08
     -2.76686358690546E-17
      4.98669946668662E-01
     -4.98669946668662E-01  -4.98669946668662E-01   0.00000000000000E+00   0.00000000000000E+00  -6.40910907495058E-08
     -2.46138978535683E-10  -6.43372297280415E-08   2.57510099578408E-17   0.00000000000000E+00   0.00000000000000E+00
      0.00000000000000E+00   0.00000000000000E+00   6.40869680546866E-08   2.50261673354955E-10   6.43372297280415E-08
     -2.57510099578408E-17
      5.18731407633005E-01
     -5.18731407633005E-01  -5.18731407633005E-01   0.00000000000000E+00   0.00000000000000E+00  -9.53255344521357E-08
     -5.12889518061527E-10  -9.58384239701972E-08   2.40032744943415E-17   0.00000000000000E+00   0.00000000000000E+00
      0.00000000000000E+00   0.00000000000000E+00   9.53209290209353E-08   5.17494949261758E-10   9.58384239701971E-08
     -2.40032744943415E-17
      5.23211800581708E-01
     -5.23211800581708E-01  -5.23211800581708E-01   0.00000000000000E+00   0.00000000000000E+00  -1.03907103175838E-07
     -6.02315617252574E-10  -1.04509418793091E-07   2.35628202905642E-17   0.00000000000000E+00   0.00000000000000E+00
      0.00000000000000E+00   0.00000000000000E+00   1.03902502018574E-07   6.06916774516547E-10   1.04509418793090E-07
     -2.35628202905642E-17
      5.27453239239814E-01
     -5.27453239239814E-01  -5.27453239239814E-01   0.00000000000000E+00   0.00000000000000E+00  -1.12641036211650E-07
     -7.00355691514303E-10  -1.13341391903164E-07   2.31299380987241E-17   0.00000000000000E+00   0.00000000000000E+00
      0.00000000000000E+00   0.00000000000000E+00   1.12636498033480E-07   7.04893869683807E-10   1.13341391903164E-07
     -2.31299380987241E-17
      5.35483696432494E-01
     -5.35483696432494E-01  -5.35483696432494E-01   0.00000000000000E+00   0.00000000000000E+00  -1.30908290805630E-07
     -9.28052142514949E-10  -1.31836342948145E-07   2.22708500571607E-17   0.00000000000000E+00   0.00000000000000E+00
      0.00000000000000E+00   0.00000000000000E+00   1.30904071772298E-07   9.32271175846639E-10   1.31836342948145E-07
     -2.22708500571607E-17
      5.42871717049760E-01
     -5.42871717049760E-01  -5.42871717049760E-01   0.00000000000000E+00   0.00000000000000E+00  -1.49850025592673E-07
     -1.19601218464953E-09  -1.51046037777323E-07   2.14401511266550E-17   0.00000000000000E+00   0.00000000000000E+00
      0.00000000000000E+00   0.00000000000000E+00   1.49846399111241E-07   1.19963866608202E-09   1.51046037777323E-07
     -2.14401511266550E-17
      5.56662688868656E-01
     -5.56662688868656E-01  -5.56662688868656E-01   0.00000000000000E+00   0.00000000000000E+00  -1.91114751524826E-07
     -1.88907890487600E-09  -1.93003830429702E-07   1.98132389836818E-17   0.00000000000000E+00   0.00000000000000E+00
      0.00000000000000E+00   0.00000000000000E+00   1.91113305893262E-07   1.89052453643974E-09   1.93003830429702E-07
     -1.98132389836817E-17
      5.69350382942041E-01
     -5.69350382942041E-01  -5.69350382942041E-01   0.00000000000000E+00   0.00000000000000E+00  -2.36215868735972E-07
     -2.81174850336100E-09  -2.39027617239333E-07   1.82743162743957E-17   0.00000000000000E+00   0.00000000000000E+00
      0.00000000000000E+00   0.00000000000000E+00   2.36218143090289E-07   2.80947414904392E-09   2.39027617239333E-07
     -1.82743162743956E-17
      5.92695740037068E-01
     -5.92695740037068E-01  -5.92695740037068E-01   0.00000000000000E+00   0.00000000000000E+00  -3.36542450659595E-07
     -5.44186812713578E-09  -3.41984318786731E-07   1.55245349965868E-17   0.00000000000000E+00   0.00000000000000E+00
      0.00000000000000E+00   0.00000000000000E+00   3.36557661023785E-07   5.42665776294488E-09   3.41984318786730E-07
     -1.55245349965868E-17
      6.13239654280692E-01
     -6.13239654280692E-01  -6.13239654280692E-01   0.00000000000000E+00   0.00000000000000E+00  -4.39403564484677E-07
     -8.88768073147190E-09  -4.48291245216149E-07   1.33917781462537E-17   0.00000000000000E+00   0.00000000000000E+00
      0.00000000000000E+00   0.00000000000000E+00   4.39438108404811E-07   8.85313681133759E-09   4.48291245216149E-07
     -1.33917781462537E-17
      6.22552895404469E-01
     -6.22552895404469E-01  -6.22552895404469E-01   0.00000000000000E+00   0.00000000000000E+00  -4.88519260525801E-07
     -1.07716903393903E-08  -4.99290950865191E-07   1.25508941890907E-17   0.00000000000000E+00   0.00000000000000E+00
      0.00000000000000E+00   0.00000000000000E+00   4.88564989467694E-07   1.07259613974976E-08   4.99290950865191E-07
     -1.25508941890907E-17
      6.31121077238343E-01
     -6.31121077238343E-01  -6.31121077238343E-01   0.00000000000000E+00   0.00000000000000E+00  -5.34091304302987E-07
     -1.26440448756889E-08  -5.46735349178676E-07   1.18523148716471E-17   0.00000000000000E+00   0.00000000000000E+00
      0.00000000000000E+00   0.00000000000000E+00   5.34148441625909E-07   1.25869075527668E-08   5.46735349178676E-07
     -1.18523148716471E-17
      6.46886531812671E-01
     -6.46886531812671E-01  -6.46886531812671E-01   0.00000000000000E+00   0.00000000000000E+00  -6.16807932460698E-07
     -1.63156193875188E-08  -6.33123551848217E-07   1.07515473573349E-17   0.00000000000000E+00   0.00000000000000E+00
      0.00000000000000E+00   0.00000000000000E+00   6.16888080546355E-07   1.62354713018607E-08   6.33123551848216E-07
     -1.07515473573349E-17
      6.61390750021054E-01
     -6.61390750021054E-01  -6.61390750021054E-01   0.00000000000000E+00   0.00000000000000E+00  -6.89306243698977E-07
     -1.97804807564159E-08  -7.09086724455393E-07   9.93318386085467E-18   0.00000000000000E+00   0.00000000000000E+00
      0.00000000000000E+00   0.00000000000000E+00   6.89408704646641E-07   1.96780198087528E-08   7.09086724455394E-07
     -9.93318386085468E-18
      6.88078511524477E-01
     -6.88078511524477E-01  -6.88078511524477E-01   0.00000000000000E+00   0.00000000000000E+00  -8.08748711979112E-07
     -2.58543671086978E-08  -8.34603079087810E-07   8.82064061139127E-18   0.00000000000000E+00   0.00000000000000E+00
      0.00000000000000E+00   0.00000000000000E+00   8.08891357910128E-07   2.57117211776828E-08   8.34603079087810E-07
     -8.82064061139127E-18
      6.99643208175960E-01
     -6.99643208175960E-01  -6.99643208175960E-01   0.00000000000000E+00   0.00000000000000E+00  -8.54403116564580E-07
     -2.82513936350277E-08  -8.82654510199607E-07   8.45976727437160E-18   0.00000000000000E+00   0.00000000000000E+00
      0.00000000000000E+00   0.00000000000000E+00   8.54561941610545E-07   2.80925685890630E-08   8.82654510199608E-07
     -8.45976727437157E-18
      7.10282729095325E-01
     -7.10282729095325E-01  -7.10282729095325E-01   0.00000000000000E+00   0.00000000000000E+00  -8.93356735147822E-07
     -3.03116080268192E-08  -9.23668343174641E-07   8.17608079383301E-18   0.00000000000000E+00   0.00000000000000E+00
      0.00000000000000E+00   0.00000000000000E+00   8.93529598654682E-07   3.01387445199574E-08   9.23668343174639E-07
     -8.17608079383302E-18
      7.15176908718233E-01
     -7.15176908718233E-01  -7.15176908718233E-01   0.00000000000000E+00   0.00000000000000E+00  -9.10371697267620E-07
     -3.12133129722848E-08  -9.41585010239904E-07   8.05867210060573E-18   0.00000000000000E+00   0.00000000000000E+00
      0.00000000000000E+00   0.00000000000000E+00   9.10550742510464E-07   3.10342677294414E-08   9.41585010239905E-07
     -8.05867210060572E-18
      7.24443222137605E-01
     -7.24443222137605E-01  -7.24443222137605E-01   0.00000000000000E+00   0.00000000000000E+00  -9.41165911773349E-07
     -3.28449451922529E-08  -9.74010856965602E-07   7.85562039275208E-18   0.00000000000000E+00   0.00000000000000E+00
      0.00000000000000E+00   0.00000000000000E+00   9.41356199470722E-07   3.26546574948808E-08   9.74010856965603E-07
     -7.85562039275212E-18
      7.41740340520433E-01
     -7.41740340520433E-01  -7.41740340520433E-01   0.00000000000000E+00   0.00000000000000E+00  -9.94300927224613E-07
     -3.56501541159233E-08  -1.02995108134054E-06   7.53172674781347E-18   0.00000000000000E+00   0.00000000000000E+00
      0.00000000000000E+00   0.00000000000000E+00   9.94510709304551E-07   3.54403720359850E-08   1.02995108134054E-06
     -7.53172674781349E-18
      7.57423061187530E-01
     -7.57423061187530E-01  -7.57423061187530E-01   0.00000000000000E+00   0.00000000000000E+00  -1.03846526231157E-06
     -3.79634450886678E-08  -1.07642870740024E-06   7.28548096144789E-18   0.00000000000000E+00   0.00000000000000E+00
      0.00000000000000E+00   0.00000000000000E+00   1.03869127081078E-06   3.77374365894615E-08   1.07642870740024E-06
     -7.28548096144787E-18
      7.86279267214989E-01
     -7.86279267214989E-01  -7.86279267214989E-01   0.00000000000000E+00   0.00000000000000E+00  -1.11236219453641E-06
     -4.17847701593337E-08  -1.15414696469574E-06   6.91347660611479E-18   0.00000000000000E+00   0.00000000000000E+00
      0.00000000000000E+00   0.00000000000000E+00   1.11261528147189E-06   4.15316832238561E-08   1.15414696469574E-06
     -6.91347660611482E-18
      7.98779267214989E-01
     -7.98779267214989E-01  -7.98779267214989E-01   0.00000000000000E+00   0.00000000000000E+00  -1.14212863191519E-06
     -4.33056053610730E-08  -1.18543423727626E-06   6.77592673918184E-18   0.00000000000000E+00   0.00000000000000E+00
      0.00000000000000E+00   0.00000000000000E+00   1.14239258227926E-06   4.30416549970060E-08   1.18543423727626E-06
     -6.77592673918188E-18
      8.10279267214989E-01
     -8.10279267214989E-01  -8.10279267214989E-01   0.00000000000000E+00   0.00000000000000E+00  -1.16857442934035E-06
     -4.46480618885455E-08  -1.21322249122889E-06   6.65894497533330E-18   0.00000000000000E+00   0.00000000000000E+00
      0.00000000000000E+00   0.00000000000000E+00   1.16884800638096E-06   4.43744848479288E-08   1.21322249122889E-06
     -6.65894497533334E-18
      8.15339267214989E-01
     -8.15339267214989E-01  -8.15339267214989E-01   0.00000000000000E+00   0.00000000000000E+00  -1.17995782536145E-06
     -4.52234378539796E-08  -1.22518126321543E-06   6.61001095531666E-18   0.00000000000000E+00   0.00000000000000E+00
      0.00000000000000E+00   0.00000000000000E+00   1.18023553863569E-06   4.49457245797374E-08   1.22518126321543E-06
     -6.61001095531667E-18
      8.24919533881656E-01
     -8.24919533881656E-01  -8.24919533881656E-01   0.00000000000000E+00   0.00000000000000E+00  -1.20112775530541E-06
     -4.62895867816715E-08  -1.24741734208708E-06   6.52116041452745E-18   0.00000000000000E+00   0.00000000000000E+00
      0.00000000000000E+00   0.00000000000000E+00   1.20141314847086E-06   4.60041936162193E-08   1.24741734208708E-06
     -6.52116041452747E-18
      8.42802698326100E-01
     -8.42802698326100E-01  -8.42802698326100E-01   0.00000000000000E+00   0.00000000000000E+00  -1.23944834963477E-06
     -4.82068348096245E-08  -1.28765518444439E-06   6.36702106530214E-18   0.00000000000000E+00   0.00000000000000E+00
      0.00000000000000E+00   0.00000000000000E+00   1.23974760222595E-06   4.79075822184470E-08   1.28765518444439E-06
     -6.36702106530215E-18
      8.59016767422396E-01
     -8.59016767422396E-01  -8.59016767422396E-01   0.00000000000000E+00   0.00000000000000E+00  -1.27301928514981E-06
     -4.98732975668762E-08  -1.32289258271669E-06   6.23853528055083E-18   0.00000000000000E+00   0.00000000000000E+00
      0.00000000000000E+00   0.00000000000000E+00   1.27333063230390E-06   4.95619504127905E-08   1.32289258271669E-06
     -6.23853528055071E-18
      8.73933710990989E-01
     -8.73933710990989E-01  -8.73933710990989E-01   0.00000000000000E+00   0.00000000000000E+00  -1.30304667929476E-06
     -5.13535486527269E-08  -1.35440022794749E-06   6.12838191787202E-18   0.00000000000000E+00   0.00000000000000E+00
      0.00000000000000E+00   0.00000000000000E+00   1.30336880479877E-06   5.10314231487137E-08   1.35440022794749E-06
     -6.12838191787204E-18
      9.01380887157199E-01
     -9.01380887157199E-01  -9.01380887157199E-01   0.00000000000000E+00   0.00000000000000E+00  -1.35643355191981E-06
     -5.39613181775557E-08  -1.41039487009737E-06   5.94270670253890E-18   0.00000000000000E+00   0.00000000000000E+00
      0.00000000000000E+00   0.00000000000000E+00   1.35677474119230E-06   5.36201289050631E-08   1.41039487009737E-06
     -5.94270670253891E-18
      9.25900364532347E-01
     -9.25900364532347E-01  -9.25900364532347E-01   0.00000000000000E+00   0.00000000000000E+00  -1.40235550118607E-06
     -5.61796974855934E-08  -1.45853519867167E-06   5.79247111818015E-18   0.00000000000000E+00   0.00000000000000E+00
      0.00000000000000E+00   0.00000000000000E+00   1.40271297825966E-06   5.58222204120092E-08   1.45853519867167E-06
     -5.79247111818025E-18
      9.69708497442612E-01
     -9.69708497442612E-01  -9.69708497442612E-01   0.00000000000000E+00   0.00000000000000E+00  -1.48092954667509E-06
     -5.99214596940284E-08  -1.54085100636912E-06   5.55339620695829E-18   0.00000000000000E+00   0.00000000000000E+00
      0.00000000000000E+00   0.00000000000000E+00   1.48131463131577E-06   5.95363750533500E-08   1.54085100636912E-06
     -5.55339620695819E-18
      9.84854248721306E-01
     -9.84854248721306E-01  -9.84854248721306E-01   0.00000000000000E+00   0.00000000000000E+00  -1.50719795618203E-06
     -6.11568726182517E-08  -1.56835482880029E-06   5.47805629111097E-18   0.00000000000000E+00   0.00000000000000E+00
      0.00000000000000E+00   0.00000000000000E+00   1.50759219092533E-06   6.07626378749528E-08   1.56835482880029E-06
     -5.47805629111092E-18
      1.00000000000000E+00
     -1.00000000000000E+00  -1.00000000000000E+00   0.00000000000000E+00   0.00000000000000E+00  -1.53305743535815E-06
     -6.23652807845517E-08  -1.59542271614271E-06   5.40595726683736E-18   0.00000000000000E+00   0.00000000000000E+00
      0.00000000000000E+00   0.00000000000000E+00   1.53346063629710E-06   6.19620798455999E-08   1.59542271614270E-06
     -5.40595726683734E-18
}
