DF-ISE text

Info {
  version   = 1.0
  type      = xyplot
  datasets  = [
    "time"
    "top OuterVoltage" "top InnerVoltage" "top QuasiFermiPotential" "top DisplacementCurrent" "top eCurrent"
    "top hCurrent" "top TotalCurrent" "top Charge" "bottom OuterVoltage" "bottom InnerVoltage"
    "bottom QuasiFermiPotential" "bottom DisplacementCurrent" "bottom eCurrent" "bottom hCurrent" "bottom TotalCurrent"
    "bottom Charge" ]
  functions = [
    Time
    OuterVoltage InnerVoltage QuasiFermiPotential DisplacementCurrent eCurrent
    hCurrent TotalCurrent Charge OuterVoltage InnerVoltage
    QuasiFermiPotential DisplacementCurrent eCurrent hCurrent TotalCurrent
    Charge ]
}

Data {
      0.00000000000000E+00
      0.00000000000000E+00   0.00000000000000E+00   0.00000000000000E+00   0.00000000000000E+00  -8.23805335603739E-23
      1.00973471268665E-29  -8.23805234630268E-23   6.25526318424880E-17   0.00000000000000E+00   0.00000000000000E+00
      0.00000000000000E+00   0.00000000000000E+00   8.23805335017275E-23  -1.00387008649654E-29   8.23805234630267E-23
     -6.25526318424880E-17
      0.00000000000000E+00
      0.00000000000000E+00   0.00000000000000E+00   0.00000000000000E+00   0.00000000000000E+00  -2.43092739108304E-18
      4.06499896036715E-27  -2.43092738701804E-18   6.25526033418779E-17   0.00000000000000E+00   0.00000000000000E+00
      0.00000000000000E+00   0.00000000000000E+00   2.43092739326811E-18  -6.25007160168540E-27   2.43092738701804E-18
     -6.25526033418779E-17
      1.00000000000000E-02
     -1.00000000000000E-02  -1.00000000000000E-02   0.00000000000000E+00   0.00000000000000E+00  -1.75185545375793E-16
     -8.38816808942533E-19  -1.76024362184735E-16   6.21071533790381E-17   0.00000000000000E+00   0.00000000000000E+00
      0.00000000000000E+00   0.00000000000000E+00   1.63369410574799E-16   1.26549516099363E-17   1.76024362184736E-16
     -6.21071533790381E-17
      2.89333333333333E-02
     -2.89333333333333E-02  -2.89333333333333E-02   0.00000000000000E+00   0.00000000000000E+00  -6.57611785084651E-16
     -3.44512945479044E-18  -6.61056914539441E-16   6.12572571197923E-17   0.00000000000000E+00   0.00000000000000E+00
      0.00000000000000E+00   0.00000000000000E+00   6.16840478604855E-16   4.42164359345861E-17   6.61056914539441E-16
     -6.12572571197922E-17
      6.27608888888889E-02
     -6.27608888888889E-02  -6.27608888888889E-02   0.00000000000000E+00   0.00000000000000E+00  -3.10953220880613E-15
     -1.60460400886826E-17  -3.12557824889482E-15   5.97168080048301E-17   0.00000000000000E+00   0.00000000000000E+00
      0.00000000000000E+00   0.00000000000000E+00   2.98196342152513E-15   1.43614827369690E-16   3.12557824889482E-15
     -5.97168080048301E-17
      1.12760888888889E-01
     -1.12760888888889E-01  -1.12760888888889E-01   0.00000000000000E+00   0.00000000000000E+00  -2.17530871470927E-14
     -1.08687648962227E-16  -2.18617747960550E-14   5.73851764439708E-17   0.00000000000000E+00   0.00000000000000E+00
      0.00000000000000E+00   0.00000000000000E+00   2.13155435592717E-14   5.46231236783227E-16   2.18617747960550E-14
     -5.73851764439708E-17
      1.37760888888889E-01
     -1.37760888888889E-01  -1.37760888888889E-01   0.00000000000000E+00   0.00000000000000E+00  -5.60170158454615E-14
     -2.31276101601366E-16  -5.62482919470628E-14   5.61932656474003E-17   0.00000000000000E+00   0.00000000000000E+00
      0.00000000000000E+00   0.00000000000000E+00   5.52490174202283E-14   9.99274526834593E-16   5.62482919470629E-14
     -5.61932656474003E-17
      1.49260888888889E-01
     -1.49260888888889E-01  -1.49260888888889E-01   0.00000000000000E+00   0.00000000000000E+00  -8.64484257580845E-14
     -3.68030119921630E-16  -8.68164558780062E-14   5.56388313651731E-17   0.00000000000000E+00   0.00000000000000E+00
      0.00000000000000E+00   0.00000000000000E+00   8.54583868952966E-14   1.35806898270965E-15   8.68164558780063E-14
     -5.56388313651731E-17
      1.70420888888889E-01
     -1.70420888888889E-01  -1.70420888888889E-01   0.00000000000000E+00   0.00000000000000E+00  -1.91951870778777E-13
     -8.21505939322358E-16  -1.92773376718099E-13   5.46081652325769E-17   0.00000000000000E+00   0.00000000000000E+00
      0.00000000000000E+00   0.00000000000000E+00   1.90376207742104E-13   2.39716897599453E-15   1.92773376718099E-13
     -5.46081652325768E-17
      2.03148355555556E-01
     -2.03148355555556E-01  -2.03148355555556E-01   0.00000000000000E+00   0.00000000000000E+00  -6.58881258142116E-13
     -2.88693147531392E-15  -6.61768189617429E-13   5.29860950966075E-17   0.00000000000000E+00   0.00000000000000E+00
      0.00000000000000E+00   0.00000000000000E+00   6.55652660040029E-13   6.11552957740213E-15   6.61768189617431E-13
     -5.29860950966075E-17
      2.28148355555556E-01
     -2.28148355555556E-01  -2.28148355555556E-01   0.00000000000000E+00   0.00000000000000E+00  -1.69003581040292E-12
     -7.57219705005344E-15  -1.69760800745297E-12   5.17228906454672E-17   0.00000000000000E+00   0.00000000000000E+00
      0.00000000000000E+00   0.00000000000000E+00   1.68442923179776E-12   1.31787756552142E-14   1.69760800745298E-12
     -5.17228906454672E-17
      2.49815022222222E-01
     -2.49815022222222E-01  -2.49815022222222E-01   0.00000000000000E+00   0.00000000000000E+00  -3.82244957201264E-12
     -1.74830347487538E-14  -3.83993260676139E-12   5.06102410788772E-17   0.00000000000000E+00   0.00000000000000E+00
      0.00000000000000E+00   0.00000000000000E+00   3.81335416977353E-12   2.65784369878637E-14   3.83993260676139E-12
     -5.06102410788773E-17
      2.83326133333333E-01
     -2.83326133333333E-01  -2.83326133333333E-01   0.00000000000000E+00   0.00000000000000E+00  -1.34946258065830E-11
     -6.38208597369816E-14  -1.35584466663200E-11   4.88545881367658E-17   0.00000000000000E+00   0.00000000000000E+00
      0.00000000000000E+00   0.00000000000000E+00   1.34751178185643E-11   8.33288477556579E-14   1.35584466663200E-11
     -4.88545881367658E-17
      3.08326133333333E-01
     -3.08326133333333E-01  -3.08326133333333E-01   0.00000000000000E+00   0.00000000000000E+00  -3.45377949828558E-11
     -1.67709660922321E-13  -3.47055046437782E-11   4.75153177039731E-17   0.00000000000000E+00   0.00000000000000E+00
      0.00000000000000E+00   0.00000000000000E+00   3.45027971556432E-11   2.02707488134864E-13   3.47055046437781E-11
     -4.75153177039731E-17
      3.13742800000000E-01
     -3.13742800000000E-01  -3.13742800000000E-01   0.00000000000000E+00   0.00000000000000E+00  -4.23282816908418E-11
     -2.06762423627924E-13  -4.25350441144697E-11   4.72215860711751E-17   0.00000000000000E+00   0.00000000000000E+00
      0.00000000000000E+00   0.00000000000000E+00   4.22884790104376E-11   2.46565104032119E-13   4.25350441144697E-11
     -4.72215860711751E-17
      3.18870577777778E-01
     -3.18870577777778E-01  -3.18870577777778E-01   0.00000000000000E+00   0.00000000000000E+00  -5.13117718912650E-11
     -2.52078945014160E-13  -5.15638508362792E-11   4.69422981620551E-17   0.00000000000000E+00   0.00000000000000E+00
      0.00000000000000E+00   0.00000000000000E+00   5.12667822966017E-11   2.97068539677438E-13   5.15638508362792E-11
     -4.69422981620551E-17
      3.28579170370370E-01
     -3.28579170370370E-01  -3.28579170370370E-01   0.00000000000000E+00   0.00000000000000E+00  -7.38509426710595E-11
     -3.66847939554421E-13  -7.42177906106140E-11   4.64101542937266E-17   0.00000000000000E+00   0.00000000000000E+00
      0.00000000000000E+00   0.00000000000000E+00   7.37940986284921E-11   4.23691982121759E-13   7.42177906106138E-11
     -4.64101542937266E-17
      3.37122731851852E-01
     -3.37122731851852E-01  -3.37122731851852E-01   0.00000000000000E+00   0.00000000000000E+00  -1.01710913030010E-10
     -5.10361740004790E-13  -1.02221274770015E-10   4.59380792092648E-17   0.00000000000000E+00   0.00000000000000E+00
      0.00000000000000E+00   0.00000000000000E+00   1.01640926590399E-10   5.80348179616283E-13   1.02221274770015E-10
     -4.59380792092648E-17
      3.52159400059259E-01
     -3.52159400059259E-01  -3.52159400059259E-01   0.00000000000000E+00   0.00000000000000E+00  -1.78479175898118E-10
     -9.12508143376224E-13  -1.79391684041494E-10   4.50979844949576E-17   0.00000000000000E+00   0.00000000000000E+00
      0.00000000000000E+00   0.00000000000000E+00   1.78377740974468E-10   1.01394306702573E-12   1.79391684041494E-10
     -4.50979844949576E-17
      3.58976022979951E-01
     -3.58976022979951E-01  -3.58976022979951E-01   0.00000000000000E+00   0.00000000000000E+00  -2.30179591740420E-10
     -1.18750085951196E-12  -2.31367092599932E-10   4.47129429147536E-17   0.00000000000000E+00   0.00000000000000E+00
      0.00000000000000E+00   0.00000000000000E+00   2.30059318000909E-10   1.30777459902266E-12   2.31367092599932E-10
     -4.47129429147536E-17
      3.65429092678205E-01
     -3.65429092678205E-01  -3.65429092678205E-01   0.00000000000000E+00   0.00000000000000E+00  -2.92742584077245E-10
     -1.52379128866049E-12  -2.94266375365906E-10   4.43458040881137E-17   0.00000000000000E+00   0.00000000000000E+00
      0.00000000000000E+00   0.00000000000000E+00   2.92601096141599E-10   1.66527922430623E-12   2.94266375365905E-10
     -4.43458040881137E-17
      3.71537998659219E-01
     -3.71537998659219E-01  -3.71537998659219E-01   0.00000000000000E+00   0.00000000000000E+00  -3.67417197303838E-10
     -1.92946332198866E-12  -3.69346660625827E-10   4.39957134283650E-17   0.00000000000000E+00   0.00000000000000E+00
      0.00000000000000E+00   0.00000000000000E+00   3.67252022983231E-10   2.09463764259628E-12   3.69346660625827E-10
     -4.39957134283650E-17
      3.77321096321246E-01
     -3.77321096321246E-01  -3.77321096321246E-01   0.00000000000000E+00   0.00000000000000E+00  -4.55392755717794E-10
     -2.41254216454464E-12  -4.57805297882339E-10   4.36618465501815E-17   0.00000000000000E+00   0.00000000000000E+00
      0.00000000000000E+00   0.00000000000000E+00   4.55201353897171E-10   2.60394398516787E-12   4.57805297882339E-10
     -4.36618465501815E-17
      3.82795762107965E-01
     -3.82795762107965E-01  -3.82795762107965E-01   0.00000000000000E+00   0.00000000000000E+00  -5.57758748329380E-10
     -2.98079503385686E-12  -5.60739543363237E-10   4.33434105705951E-17   0.00000000000000E+00   0.00000000000000E+00
      0.00000000000000E+00   0.00000000000000E+00   5.57538539593161E-10   3.20100377007698E-12   5.60739543363238E-10
     -4.33434105705951E-17
      3.87978445719392E-01
     -3.87978445719392E-01  -3.87978445719392E-01   0.00000000000000E+00   0.00000000000000E+00  -6.75483917327768E-10
     -3.64153160632833E-12  -6.79125448934097E-10   4.30396451081800E-17   0.00000000000000E+00   0.00000000000000E+00
      0.00000000000000E+00   0.00000000000000E+00   6.75232318371340E-10   3.89313056275639E-12   6.79125448934096E-10
     -4.30396451081799E-17
      3.97790993357027E-01
     -3.97790993357027E-01  -3.97790993357027E-01   0.00000000000000E+00   0.00000000000000E+00  -9.69290093943452E-10
     -5.31976725580694E-12  -9.74609861199259E-10   4.24576037983182E-17   0.00000000000000E+00   0.00000000000000E+00
      0.00000000000000E+00   0.00000000000000E+00   9.68965930697197E-10   5.64393050206286E-12   9.74609861199260E-10
     -4.24576037983182E-17
      4.15322745136269E-01
     -4.15322745136269E-01  -4.15322745136269E-01   0.00000000000000E+00   0.00000000000000E+00  -1.83637734240877E-09
     -1.04688122829392E-11  -1.84684615469171E-09   4.13899036113817E-17   0.00000000000000E+00   0.00000000000000E+00
      0.00000000000000E+00   0.00000000000000E+00   1.83586694906967E-09   1.09792056220364E-11   1.84684615469170E-09
     -4.13899036113817E-17
      4.23036715919135E-01
     -4.23036715919135E-01  -4.23036715919135E-01   0.00000000000000E+00   0.00000000000000E+00  -2.42436633302455E-09
     -1.40994735626445E-11  -2.43846580658720E-09   4.09056987141832E-17   0.00000000000000E+00   0.00000000000000E+00
      0.00000000000000E+00   0.00000000000000E+00   2.42374371716408E-09   1.47220894231166E-11   2.43846580658720E-09
     -4.09056987141832E-17
      4.30236421983144E-01
     -4.30236421983144E-01  -4.30236421983144E-01   0.00000000000000E+00   0.00000000000000E+00  -3.13439991884803E-09
     -1.86141928652194E-11  -3.15301411171325E-09   4.04436733885431E-17   0.00000000000000E+00   0.00000000000000E+00
      0.00000000000000E+00   0.00000000000000E+00   3.13365155172651E-09   1.93625599867372E-11   3.15301411171324E-09
     -4.04436733885431E-17
      4.36956147642885E-01
     -4.36956147642885E-01  -4.36956147642885E-01   0.00000000000000E+00   0.00000000000000E+00  -3.97388570941671E-09
     -2.41209703414170E-11  -3.99800667975812E-09   4.00020367133651E-17   0.00000000000000E+00   0.00000000000000E+00
      0.00000000000000E+00   0.00000000000000E+00   3.97299898576837E-09   2.50076939897537E-11   3.99800667975813E-09
     -4.00020367133651E-17
      4.49678828225329E-01
     -4.49678828225329E-01  -4.49678828225329E-01   0.00000000000000E+00   0.00000000000000E+00  -6.18015522565211E-09
     -3.93842109301698E-11  -6.21953943658228E-09   3.91318627696801E-17   0.00000000000000E+00   0.00000000000000E+00
      0.00000000000000E+00   0.00000000000000E+00   6.17894267852119E-09   4.05967580610827E-11   6.21953943658227E-09
     -3.91318627696800E-17
      4.72070746050429E-01
     -4.72070746050429E-01  -4.72070746050429E-01   0.00000000000000E+00   0.00000000000000E+00  -1.30353462197319E-08
     -9.31631218604337E-11  -1.31285093415923E-08   3.74507340259583E-17   0.00000000000000E+00   0.00000000000000E+00
      0.00000000000000E+00   0.00000000000000E+00   1.30333316953680E-08   9.51776462242950E-11   1.31285093415923E-08
     -3.74507340259583E-17
      4.91178515927849E-01
     -4.91178515927849E-01  -4.91178515927849E-01   0.00000000000000E+00   0.00000000000000E+00  -2.37187192263712E-08
     -1.93600672960722E-10  -2.39123198993319E-08   3.57976511385937E-17   0.00000000000000E+00   0.00000000000000E+00
      0.00000000000000E+00   0.00000000000000E+00   2.37158251701211E-08   1.96494729210846E-10   2.39123198993319E-08
     -3.57976511385936E-17
      5.23789109851977E-01
     -5.23789109851977E-01  -5.23789109851977E-01   0.00000000000000E+00   0.00000000000000E+00  -6.01645816805239E-08
     -6.65524525640672E-10  -6.08301062061646E-08   3.22967856720187E-17   0.00000000000000E+00   0.00000000000000E+00
      0.00000000000000E+00   0.00000000000000E+00   6.01605610305385E-08   6.69545175626200E-10   6.08301062061647E-08
     -3.22967856720187E-17
      5.48573161234315E-01
     -5.48573161234315E-01  -5.48573161234315E-01   0.00000000000000E+00   0.00000000000000E+00  -1.13326498443266E-07
     -1.66520462444902E-09  -1.14991703067715E-07   2.89407194804101E-17   0.00000000000000E+00   0.00000000000000E+00
      0.00000000000000E+00   0.00000000000000E+00   1.13324181760467E-07   1.66752130724845E-09   1.14991703067715E-07
     -2.89407194804101E-17
      5.59478143842544E-01
     -5.59478143842544E-01  -5.59478143842544E-01   0.00000000000000E+00   0.00000000000000E+00  -1.46953987834146E-07
     -2.46952137074993E-09  -1.49423509204896E-07   2.72804250189593E-17   0.00000000000000E+00   0.00000000000000E+00
      0.00000000000000E+00   0.00000000000000E+00   1.46954340436906E-07   2.46916876799001E-09   1.49423509204896E-07
     -2.72804250189593E-17
      5.69656127610224E-01
     -5.69656127610224E-01  -5.69656127610224E-01   0.00000000000000E+00   0.00000000000000E+00  -1.85453235884935E-07
     -3.54236025513703E-09  -1.88995596140072E-07   2.56495500405770E-17   0.00000000000000E+00   0.00000000000000E+00
      0.00000000000000E+00   0.00000000000000E+00   1.85457966890004E-07   3.53762925006717E-09   1.88995596140072E-07
     -2.56495500405769E-17
      5.79155579126725E-01
     -5.79155579126725E-01  -5.79155579126725E-01   0.00000000000000E+00   0.00000000000000E+00  -2.28508349240901E-07
     -4.92407857176454E-09  -2.33432427812666E-07   2.40757606094526E-17   0.00000000000000E+00   0.00000000000000E+00
      0.00000000000000E+00   0.00000000000000E+00   2.28519515855273E-07   4.91291195739240E-09   2.33432427812666E-07
     -2.40757606094525E-17
      5.88021733875460E-01
     -5.88021733875460E-01  -5.88021733875460E-01   0.00000000000000E+00   0.00000000000000E+00  -2.75658887784809E-07
     -6.64594160186286E-09  -2.82304829386671E-07   2.25810587978674E-17   0.00000000000000E+00   0.00000000000000E+00
      0.00000000000000E+00   0.00000000000000E+00   2.75678835291980E-07   6.62599409469123E-09   2.82304829386671E-07
     -2.25810587978674E-17
      6.04571889406431E-01
     -6.04571889406431E-01  -6.04571889406431E-01   0.00000000000000E+00   0.00000000000000E+00  -3.83942950956676E-07
     -1.13672716652229E-08  -3.95310222621899E-07   1.97925799406672E-17   0.00000000000000E+00   0.00000000000000E+00
      0.00000000000000E+00   0.00000000000000E+00   3.83989334570457E-07   1.13208880514419E-08   3.95310222621899E-07
     -1.97925799406672E-17
      6.34582838102593E-01
     -6.34582838102593E-01  -6.34582838102593E-01   0.00000000000000E+00   0.00000000000000E+00  -6.56566124267077E-07
     -2.73778645054566E-08  -6.83943988772534E-07   1.50941696961219E-17   0.00000000000000E+00   0.00000000000000E+00
      0.00000000000000E+00   0.00000000000000E+00   6.56712324899234E-07   2.72316638733008E-08   6.83943988772535E-07
     -1.50941696961220E-17
      6.59582838102593E-01
     -6.59582838102593E-01  -6.59582838102593E-01   0.00000000000000E+00   0.00000000000000E+00  -9.61530181132437E-07
     -5.10489986010868E-08  -1.01257917973352E-06   1.18558291977903E-17   0.00000000000000E+00   0.00000000000000E+00
      0.00000000000000E+00   0.00000000000000E+00   9.61834214344441E-07   5.07449653890834E-08   1.01257917973352E-06
     -1.18558291977902E-17
      6.70582838102593E-01
     -6.70582838102593E-01  -6.70582838102593E-01   0.00000000000000E+00   0.00000000000000E+00  -1.11591490979297E-06
     -6.49503280642587E-08  -1.18086523785723E-06   1.06617823460888E-17   0.00000000000000E+00   0.00000000000000E+00
      0.00000000000000E+00   0.00000000000000E+00   1.11631421997512E-06   6.45510178821158E-08   1.18086523785723E-06
     -1.06617823460888E-17
      6.90822838102593E-01
     -6.90822838102593E-01  -6.90822838102593E-01   0.00000000000000E+00   0.00000000000000E+00  -1.42515764258387E-06
     -9.60347199992501E-08  -1.52119236258312E-06   8.81946059343467E-18   0.00000000000000E+00   0.00000000000000E+00
      0.00000000000000E+00   0.00000000000000E+00   1.42577386220794E-06   9.54185003751747E-08   1.52119236258312E-06
     -8.81946059343470E-18
      7.27524704769260E-01
     -7.27524704769260E-01  -7.27524704769260E-01   0.00000000000000E+00   0.00000000000000E+00  -2.03109764227932E-06
     -1.66939596550109E-07  -2.19803723882942E-06   6.46052391878738E-18   0.00000000000000E+00   0.00000000000000E+00
      0.00000000000000E+00   0.00000000000000E+00   2.03221997582636E-06   1.65817263003069E-07   2.19803723882943E-06
     -6.46052391878737E-18
      7.33774704769260E-01
     -7.33774704769260E-01  -7.33774704769260E-01   0.00000000000000E+00   0.00000000000000E+00  -2.13546417841091E-06
     -1.80231743457867E-07  -2.31569592186878E-06   6.15862967234405E-18   0.00000000000000E+00   0.00000000000000E+00
      0.00000000000000E+00   0.00000000000000E+00   2.13668253487427E-06   1.79013386994516E-07   2.31569592186878E-06
     -6.15862967234407E-18
      7.39608038102593E-01
     -7.39608038102593E-01  -7.39608038102593E-01   0.00000000000000E+00   0.00000000000000E+00  -2.23235502257058E-06
     -1.92811728348117E-07  -2.42516675091870E-06   5.89794970107713E-18   0.00000000000000E+00   0.00000000000000E+00
      0.00000000000000E+00   0.00000000000000E+00   2.23366451197151E-06   1.91502238947188E-07   2.42516675091870E-06
     -5.89794970107713E-18
      7.50652482547037E-01
     -7.50652482547037E-01  -7.50652482547037E-01   0.00000000000000E+00   0.00000000000000E+00  -2.41361471452807E-06
     -2.16919966257264E-07  -2.63053468078533E-06   5.45446617386312E-18   0.00000000000000E+00   0.00000000000000E+00
      0.00000000000000E+00   0.00000000000000E+00   2.41509947537726E-06   2.15435205408073E-07   2.63053468078533E-06
     -5.45446617386312E-18
      7.60960630695185E-01
     -7.60960630695185E-01  -7.60960630695185E-01   0.00000000000000E+00   0.00000000000000E+00  -2.57928013391278E-06
     -2.39551801923800E-07  -2.81883193583658E-06   5.09243853538470E-18   0.00000000000000E+00   0.00000000000000E+00
      0.00000000000000E+00   0.00000000000000E+00   2.58093010301501E-06   2.37901832821572E-07   2.81883193583658E-06
     -5.09243853538469E-18
      7.65702378843334E-01
     -7.65702378843334E-01  -7.65702378843334E-01   0.00000000000000E+00   0.00000000000000E+00  -2.65412135988235E-06
     -2.49947448139147E-07  -2.90406880802150E-06   4.94068221251465E-18   0.00000000000000E+00   0.00000000000000E+00
      0.00000000000000E+00   0.00000000000000E+00   2.65584741343314E-06   2.48221394588358E-07   2.90406880802150E-06
     -4.94068221251465E-18
      7.74680088670494E-01
     -7.74680088670494E-01  -7.74680088670494E-01   0.00000000000000E+00   0.00000000000000E+00  -2.79320896283108E-06
     -2.69528832606492E-07  -3.06273779543757E-06   4.67595391832142E-18   0.00000000000000E+00   0.00000000000000E+00
      0.00000000000000E+00   0.00000000000000E+00   2.79507864385353E-06   2.67659151584041E-07   3.06273779543757E-06
     -4.67595391832145E-18
      7.83059284509177E-01
     -7.83059284509177E-01  -7.83059284509177E-01   0.00000000000000E+00   0.00000000000000E+00  -2.91975756980847E-06
     -2.87620122163248E-07  -3.20737769197171E-06   4.45273299011610E-18   0.00000000000000E+00   0.00000000000000E+00
      0.00000000000000E+00   0.00000000000000E+00   2.92176029057071E-06   2.85617401401012E-07   3.20737769197172E-06
     -4.45273299011607E-18
      7.90879867291948E-01
     -7.90879867291948E-01  -7.90879867291948E-01   0.00000000000000E+00   0.00000000000000E+00  -3.03491983672682E-06
     -3.04293692992041E-07  -3.33921352971886E-06   4.26266175156839E-18   0.00000000000000E+00   0.00000000000000E+00
      0.00000000000000E+00   0.00000000000000E+00   3.03704544388297E-06   3.02168085835885E-07   3.33921352971885E-06
     -4.26266175156839E-18
      7.98179077889201E-01
     -7.98179077889201E-01  -7.98179077889201E-01   0.00000000000000E+00   0.00000000000000E+00  -3.13980802661393E-06
     -3.19641391459148E-07  -3.45944941807307E-06   4.09936678909932E-18   0.00000000000000E+00   0.00000000000000E+00
      0.00000000000000E+00   0.00000000000000E+00   3.14204696661491E-06   3.17402451458169E-07   3.45944941807308E-06
     -4.09936678909928E-18
      8.04991674446637E-01
     -8.04991674446637E-01  -8.04991674446637E-01   0.00000000000000E+00   0.00000000000000E+00  -3.23545523737117E-06
     -3.33762359386840E-07  -3.56921759675801E-06   3.95793929060012E-18   0.00000000000000E+00   0.00000000000000E+00
      0.00000000000000E+00   0.00000000000000E+00   3.23779862781410E-06   3.31418968943909E-07   3.56921759675801E-06
     -3.95793929060012E-18
      8.11350097900244E-01
     -8.11350097900244E-01  -8.11350097900244E-01   0.00000000000000E+00   0.00000000000000E+00  -3.32279938849206E-06
     -3.46755696414573E-07  -3.66955508490664E-06   3.83455914071382E-18   0.00000000000000E+00   0.00000000000000E+00
      0.00000000000000E+00   0.00000000000000E+00   3.32523903162147E-06   3.44316053285164E-07   3.66955508490663E-06
     -3.83455914071382E-18
      8.17284626456944E-01
     -8.17284626456944E-01  -8.17284626456944E-01   0.00000000000000E+00   0.00000000000000E+00  -3.40268055864123E-06
     -3.58716347086948E-07  -3.76139690572818E-06   3.72622208280457E-18   0.00000000000000E+00   0.00000000000000E+00
      0.00000000000000E+00   0.00000000000000E+00   3.40520892144553E-06   3.56187984282649E-07   3.76139690572818E-06
     -3.72622208280455E-18
      8.28362413096117E-01
     -8.28362413096117E-01  -8.28362413096117E-01   0.00000000000000E+00   0.00000000000000E+00  -3.54770663807006E-06
     -3.80608041034340E-07  -3.92831467910440E-06   3.53968341217709E-18   0.00000000000000E+00   0.00000000000000E+00
      0.00000000000000E+00   0.00000000000000E+00   3.55039766422034E-06   3.77917014884057E-07   3.92831467910439E-06
     -3.53968341217710E-18
      8.38701680626012E-01
     -8.38701680626012E-01  -8.38701680626012E-01   0.00000000000000E+00   0.00000000000000E+00  -3.67850007457632E-06
     -4.00532377817270E-07  -4.07903245239359E-06   3.38172735726678E-18   0.00000000000000E+00   0.00000000000000E+00
      0.00000000000000E+00   0.00000000000000E+00   3.68133944583378E-06   3.97693006559806E-07   4.07903245239359E-06
     -3.38172735726674E-18
      8.48213806753515E-01
     -8.48213806753515E-01  -8.48213806753515E-01   0.00000000000000E+00   0.00000000000000E+00  -3.79517828484726E-06
     -4.18439458638706E-07  -4.21361774348596E-06   3.24829425982650E-18   0.00000000000000E+00   0.00000000000000E+00
      0.00000000000000E+00   0.00000000000000E+00   3.79815121484147E-06   4.15466528644497E-07   4.21361774348597E-06
     -3.24829425982651E-18
      8.56964962790818E-01
     -8.56964962790818E-01  -8.56964962790818E-01   0.00000000000000E+00   0.00000000000000E+00  -3.89961925020198E-06
     -4.34566838778784E-07  -4.33418608898076E-06   3.13435822183071E-18   0.00000000000000E+00   0.00000000000000E+00
      0.00000000000000E+00   0.00000000000000E+00   3.90271264667075E-06   4.31473442310010E-07   4.33418608898076E-06
     -3.13435822183066E-18
      8.65132708425634E-01
     -8.65132708425634E-01  -8.65132708425634E-01   0.00000000000000E+00   0.00000000000000E+00  -3.99473137295392E-06
     -4.49329033336434E-07  -4.44406040629035E-06   3.03480387382807E-18   0.00000000000000E+00   0.00000000000000E+00
      0.00000000000000E+00   0.00000000000000E+00   3.99793518425989E-06   4.46125222030455E-07   4.44406040629034E-06
     -3.03480387382812E-18
      8.72755937684796E-01
     -8.72755937684796E-01  -8.72755937684796E-01   0.00000000000000E+00   0.00000000000000E+00  -4.08155078956566E-06
     -4.62862859908619E-07  -4.54441364947428E-06   2.94721036812979E-18   0.00000000000000E+00   0.00000000000000E+00
      0.00000000000000E+00   0.00000000000000E+00   4.08485594709727E-06   4.59557702377008E-07   4.54441364947428E-06
     -2.94721036812982E-18
      8.79870951660013E-01
     -8.79870951660013E-01  -8.79870951660013E-01   0.00000000000000E+00   0.00000000000000E+00  -4.16096439643031E-06
     -4.75288410663640E-07  -4.63625280709395E-06   2.86967723384967E-18   0.00000000000000E+00   0.00000000000000E+00
      0.00000000000000E+00   0.00000000000000E+00   4.16436269882215E-06   4.71890108271806E-07   4.63625280709396E-06
     -2.86967723384965E-18
      8.86606498223219E-01
     -8.86606498223219E-01  -8.86606498223219E-01   0.00000000000000E+00   0.00000000000000E+00  -4.23476685591677E-06
     -4.86873348211238E-07  -4.72164020412800E-06   2.79972745359203E-18   0.00000000000000E+00   0.00000000000000E+00
      0.00000000000000E+00   0.00000000000000E+00   4.23825208425259E-06   4.83388119875425E-07   4.72164020412801E-06
     -2.79972745359205E-18
      8.92893008348878E-01
     -8.92893008348878E-01  -8.92893008348878E-01   0.00000000000000E+00   0.00000000000000E+00  -4.30249019734861E-06
     -4.97534009473261E-07  -4.80002420682187E-06   2.73724185620457E-18   0.00000000000000E+00   0.00000000000000E+00
      0.00000000000000E+00   0.00000000000000E+00   4.30605548545532E-06   4.93968721366553E-07   4.80002420682187E-06
     -2.73724185620459E-18
      9.04627827250108E-01
     -9.04627827250108E-01  -9.04627827250108E-01   0.00000000000000E+00   0.00000000000000E+00  -4.42605253545399E-06
     -5.17053673650047E-07  -4.94310620910404E-06   2.62720876489491E-18   0.00000000000000E+00   0.00000000000000E+00
      0.00000000000000E+00   0.00000000000000E+00   4.42976458060163E-06   5.13341628502392E-07   4.94310620910402E-06
     -2.62720876489496E-18
      9.14954467883190E-01
     -9.14954467883190E-01  -9.14954467883190E-01   0.00000000000000E+00   0.00000000000000E+00  -4.53186664694954E-06
     -5.33835197131426E-07  -5.06570184408096E-06   2.53682023841460E-18   0.00000000000000E+00   0.00000000000000E+00
      0.00000000000000E+00   0.00000000000000E+00   4.53570503194248E-06   5.29996812138481E-07   5.06570184408097E-06
     -2.53682023841461E-18
      9.24454977265626E-01
     -9.24454977265626E-01  -9.24454977265626E-01   0.00000000000000E+00   0.00000000000000E+00  -4.62692745732208E-06
     -5.48958505537042E-07  -5.17588596285912E-06   2.45844774261253E-18   0.00000000000000E+00   0.00000000000000E+00
      0.00000000000000E+00   0.00000000000000E+00   4.63087982908556E-06   5.45006133773562E-07   5.17588596285912E-06
     -2.45844774261259E-18
      9.33195445897467E-01
     -9.33195445897467E-01  -9.33195445897467E-01   0.00000000000000E+00   0.00000000000000E+00  -4.71253303614551E-06
     -5.62612765966618E-07  -5.27514580211213E-06   2.39003740999358E-18   0.00000000000000E+00   0.00000000000000E+00
      0.00000000000000E+00   0.00000000000000E+00   4.71658842655514E-06   5.58557375556987E-07   5.27514580211212E-06
     -2.39003740999362E-18
      9.41353216620518E-01
     -9.41353216620518E-01  -9.41353216620518E-01   0.00000000000000E+00   0.00000000000000E+00  -4.79089415369485E-06
     -5.75138576155400E-07  -5.36603272985025E-06   2.32912860229089E-18   0.00000000000000E+00   0.00000000000000E+00
      0.00000000000000E+00   0.00000000000000E+00   4.79504413430491E-06   5.70988595545344E-07   5.36603272985026E-06
     -2.32912860229084E-18
      9.48967135962033E-01