DF-ISE text

Info {
  version   = 1.0
  type      = xyplot
  datasets  = [
    "time"
    "top OuterVoltage" "top InnerVoltage" "top QuasiFermiPotential" "top DisplacementCurrent" "top eCurrent"
    "top hCurrent" "top TotalCurrent" "top Charge" "bottom OuterVoltage" "bottom InnerVoltage"
    "bottom QuasiFermiPotential" "bottom DisplacementCurrent" "bottom eCurrent" "bottom hCurrent" "bottom TotalCurrent"
    "bottom Charge" ]
  functions = [
    Time
    OuterVoltage InnerVoltage QuasiFermiPotential DisplacementCurrent eCurrent
    hCurrent TotalCurrent Charge OuterVoltage InnerVoltage
    QuasiFermiPotential DisplacementCurrent eCurrent hCurrent TotalCurrent
    Charge ]
}

Data {
      0.00000000000000E+00
      0.00000000000000E+00   0.00000000000000E+00   0.00000000000000E+00   0.00000000000000E+00   9.08617478055528E-22
      3.23023163791239E-30   9.08617481285760E-22   4.61187609719382E-17   0.00000000000000E+00   0.00000000000000E+00
      0.00000000000000E+00   0.00000000000000E+00  -9.08617478205535E-22  -3.08022588400778E-30  -9.08617481285761E-22
     -4.61187609719381E-17
      0.00000000000000E+00
      0.00000000000000E+00   0.00000000000000E+00   0.00000000000000E+00   0.00000000000000E+00  -1.53866900528250E-20
      2.07059805874608E-31  -1.53866900526179E-20   4.61194900000056E-17   0.00000000000000E+00   0.00000000000000E+00
      0.00000000000000E+00   0.00000000000000E+00   1.53866900533560E-20  -7.38153804215504E-31   1.53866900526179E-20
     -4.61194900000056E-17
      1.00000000000000E-02
     -1.00000000000000E-02  -1.00000000000000E-02   0.00000000000000E+00   0.00000000000000E+00  -8.19958450371894E-15
     -3.54585990611440E-20  -8.19961996231800E-15   4.60291951064798E-17   0.00000000000000E+00   0.00000000000000E+00
      0.00000000000000E+00   0.00000000000000E+00   8.16403274253030E-15   3.55872197877205E-17   8.19961996231802E-15
     -4.60291951064798E-17
      1.94666666666667E-02
     -1.94666666666667E-02  -1.94666666666667E-02   0.00000000000000E+00   0.00000000000000E+00  -1.89346820269222E-14
     -8.39300759568197E-20  -1.89347659569982E-14   4.59447674469102E-17   0.00000000000000E+00   0.00000000000000E+00
      0.00000000000000E+00   0.00000000000000E+00   1.88585865120522E-14   7.61794449459940E-17   1.89347659569982E-14
     -4.59447674469102E-17
      3.73902222222222E-02
     -3.73902222222222E-02  -3.73902222222222E-02   0.00000000000000E+00   0.00000000000000E+00  -5.16498276888955E-14
     -2.40014922989800E-19  -5.16500677038184E-14   4.57877200728138E-17   0.00000000000000E+00   0.00000000000000E+00
      0.00000000000000E+00   0.00000000000000E+00   5.14722602252101E-14   1.77807478608307E-16   5.16500677038184E-14
     -4.57877200728138E-17
      5.12511051851852E-02
     -5.12511051851852E-02  -5.12511051851852E-02   0.00000000000000E+00   0.00000000000000E+00  -9.50201449787358E-14
     -4.57874548045785E-19  -9.50206028532838E-14   4.56687828749465E-17   0.00000000000000E+00   0.00000000000000E+00
      0.00000000000000E+00   0.00000000000000E+00   9.47335074774150E-14   2.87095375868750E-16   9.50206028532837E-14
     -4.56687828749465E-17
      6.40031175111111E-02
     -6.40031175111111E-02  -6.40031175111111E-02   0.00000000000000E+00   0.00000000000000E+00  -1.58062052634949E-13
     -7.88665406703425E-19  -1.58062841300355E-13   4.55612913248338E-17   0.00000000000000E+00   0.00000000000000E+00
      0.00000000000000E+00   0.00000000000000E+00   1.57642013158400E-13   4.20828141955206E-16   1.58062841300355E-13
     -4.55612913248338E-17
      7.57349688509630E-02
     -7.57349688509630E-02  -7.57349688509630E-02   0.00000000000000E+00   0.00000000000000E+00  -2.46443779779798E-13
     -1.27147011567054E-18  -2.46445051249914E-13   4.54640267118448E-17   0.00000000000000E+00   0.00000000000000E+00
      0.00000000000000E+00   0.00000000000000E+00   2.45863587113323E-13   5.81464136590162E-16   2.46445051249913E-13
     -4.54640267118447E-17
      8.66846967681580E-02
     -8.66846967681580E-02  -8.66846967681580E-02   0.00000000000000E+00   0.00000000000000E+00  -3.68284065395082E-13
     -1.96355598293407E-18  -3.68286028951064E-13   4.53746460773639E-17   0.00000000000000E+00   0.00000000000000E+00
      0.00000000000000E+00   0.00000000000000E+00   3.67512099671709E-13   7.73929279354685E-16   3.68286028951063E-13
     -4.53746460773640E-17
      9.69044428242067E-02
     -9.69044428242067E-02  -9.69044428242067E-02   0.00000000000000E+00   0.00000000000000E+00  -5.31812467265576E-13
     -2.93540140122520E-18  -5.31815402666977E-13   4.52924351565886E-17   0.00000000000000E+00   0.00000000000000E+00
      0.00000000000000E+00   0.00000000000000E+00   5.30814277472978E-13   1.00112519399936E-15   5.31815402666977E-13
     -4.52924351565886E-17
      1.06579135757266E-01
     -1.06579135757266E-01  -1.06579135757266E-01   0.00000000000000E+00   0.00000000000000E+00  -7.49435720974821E-13
     -4.26507152016644E-18  -7.49439986046341E-13   4.52156773970081E-17   0.00000000000000E+00   0.00000000000000E+00
      0.00000000000000E+00   0.00000000000000E+00   7.48170326890178E-13   1.26965915616317E-15   7.49439986046341E-13
     -4.52156773970081E-17
      1.24896554377192E-01
     -1.24896554377192E-01  -1.24896554377192E-01   0.00000000000000E+00   0.00000000000000E+00  -1.42166728907050E-12
     -8.65814076819247E-18  -1.42167594721127E-12   4.50731584802281E-17   0.00000000000000E+00   0.00000000000000E+00
      0.00000000000000E+00   0.00000000000000E+00   1.41970636753294E-12   1.96957967832568E-15   1.42167594721127E-12
     -4.50731584802280E-17
      1.39794721521399E-01
     -1.39794721521399E-01  -1.39794721521399E-01   0.00000000000000E+00   0.00000000000000E+00  -2.37713855996829E-12
     -1.54018510848423E-17  -2.37715396181937E-12   4.49599014508355E-17   0.00000000000000E+00   0.00000000000000E+00
      0.00000000000000E+00   0.00000000000000E+00   2.37435774393308E-12   2.79621788629544E-15   2.37715396181937E-12
     -4.49599014508356E-17
      1.53501035294068E-01
     -1.53501035294068E-01  -1.53501035294068E-01   0.00000000000000E+00   0.00000000000000E+00  -3.79826095673544E-12
     -2.61268291746943E-17  -3.79828708356461E-12   4.48577518461143E-17   0.00000000000000E+00   0.00000000000000E+00
      0.00000000000000E+00   0.00000000000000E+00   3.79443889938024E-12   3.84818418437257E-15   3.79828708356462E-12
     -4.48577518461143E-17
      1.66110843964925E-01
     -1.66110843964925E-01  -1.66110843964925E-01   0.00000000000000E+00   0.00000000000000E+00  -5.82636179683969E-12
     -4.06991695088592E-17  -5.82640249600919E-12   4.47654493171908E-17   0.00000000000000E+00   0.00000000000000E+00
      0.00000000000000E+00   0.00000000000000E+00   5.82124962308143E-12   5.15287292775564E-15   5.82640249600919E-12
     -4.47654493171907E-17
      1.77879998724391E-01
     -1.77879998724391E-01  -1.77879998724391E-01   0.00000000000000E+00   0.00000000000000E+00  -8.66210550949114E-12
     -6.69832572139565E-17  -8.66217249274836E-12   4.46806908071636E-17   0.00000000000000E+00   0.00000000000000E+00
      0.00000000000000E+00   0.00000000000000E+00   8.65540532008996E-12   6.76717265841594E-15   8.66217249274837E-12
     -4.46806908071636E-17
      1.88707621103099E-01
     -1.88707621103099E-01  -1.88707621103099E-01   0.00000000000000E+00   0.00000000000000E+00  -1.24465125577142E-11
     -1.01856840212062E-16  -1.24466144145544E-11   4.46038421258993E-17   0.00000000000000E+00   0.00000000000000E+00
      0.00000000000000E+00   0.00000000000000E+00   1.24379230368083E-11   8.69137774603997E-15   1.24466144145544E-11
     -4.46038421258993E-17
      1.98813401989894E-01
     -1.98813401989894E-01  -1.98813401989894E-01   0.00000000000000E+00   0.00000000000000E+00  -1.74209936007936E-11
     -1.54875569312152E-16  -1.74211484763629E-11   4.45330372085018E-17   0.00000000000000E+00   0.00000000000000E+00
      0.00000000000000E+00   0.00000000000000E+00   1.74101651410053E-11   1.09833353576140E-14   1.74211484763630E-11
     -4.45330372085018E-17
      2.17947013802225E-01
     -2.17947013802225E-01  -2.17947013802225E-01   0.00000000000000E+00   0.00000000000000E+00  -3.27374388648489E-11
     -3.15393032559330E-16  -3.27377542578814E-11   4.44011834388072E-17   0.00000000000000E+00   0.00000000000000E+00
      0.00000000000000E+00   0.00000000000000E+00   3.27206527541666E-11   1.71015037148125E-14   3.27377542578814E-11
     -4.44011834388072E-17
      2.32743673603761E-01
     -2.32743673603761E-01  -2.32743673603761E-01   0.00000000000000E+00   0.00000000000000E+00  -5.30289978733847E-11
     -5.58964994471032E-16  -5.30295568383791E-11   4.43008958845012E-17   0.00000000000000E+00   0.00000000000000E+00
      0.00000000000000E+00   0.00000000000000E+00   5.30054379457309E-11   2.41188926482416E-14   5.30295568383791E-11
     -4.43008958845011E-17
      2.46159311823821E-01
     -2.46159311823821E-01  -2.46159311823821E-01   0.00000000000000E+00   0.00000000000000E+00  -8.17435601705817E-11
     -9.39188034815513E-16  -8.17444993586166E-11   4.42109108415735E-17   0.00000000000000E+00   0.00000000000000E+00
      0.00000000000000E+00   0.00000000000000E+00   8.17115246457146E-11   3.29747129019554E-14   8.17444993586166E-11
     -4.42109108415735E-17
      2.58501698986276E-01
     -2.58501698986276E-01  -2.58501698986276E-01   0.00000000000000E+00   0.00000000000000E+00  -1.21211627570464E-10
     -1.51376866774111E-15  -1.21213141339132E-10   4.41285978855472E-17   0.00000000000000E+00   0.00000000000000E+00
      0.00000000000000E+00   0.00000000000000E+00   1.21169134114206E-10   4.40072249253067E-14   1.21213141339132E-10
     -4.41285978855471E-17
      2.69856695175734E-01
     -2.69856695175734E-01  -2.69856695175734E-01   0.00000000000000E+00   0.00000000000000E+00  -1.73487884715701E-10
     -2.34857006480739E-15  -1.73490233285766E-10   4.40529436378786E-17   0.00000000000000E+00   0.00000000000000E+00
      0.00000000000000E+00   0.00000000000000E+00   1.73432800445215E-10   5.74328405504338E-14   1.73490233285766E-10
     -4.40529436378787E-17
      2.80303291670036E-01
     -2.80303291670036E-01  -2.80303291670036E-01   0.00000000000000E+00   0.00000000000000E+00  -2.40427622464701E-10
     -3.51818629304628E-15  -2.40431140650994E-10   4.39830725533500E-17   0.00000000000000E+00   0.00000000000000E+00
      0.00000000000000E+00   0.00000000000000E+00   2.40357723063592E-10   7.34175874017697E-14   2.40431140650994E-10
     -4.39830725533500E-17
      2.99803605126066E-01
     -2.99803605126066E-01  -2.99803605126066E-01   0.00000000000000E+00   0.00000000000000E+00  -4.37587391964194E-10
     -7.47927286445234E-15  -4.37594871237059E-10   4.38505603382641E-17   0.00000000000000E+00   0.00000000000000E+00
      0.00000000000000E+00   0.00000000000000E+00   4.37478613434843E-10   1.16257802215884E-13   4.37594871237059E-10
     -4.38505603382642E-17
      3.16183868429131E-01
     -3.16183868429131E-01  -3.16183868429131E-01   0.00000000000000E+00   0.00000000000000E+00  -7.15213693509329E-10
     -1.40934788858338E-14  -7.15227786988215E-10   4.37349660606343E-17   0.00000000000000E+00   0.00000000000000E+00
      0.00000000000000E+00   0.00000000000000E+00   7.15056553984183E-10   1.71233004031903E-13   7.15227786988215E-10
     -4.37349660606344E-17
      3.31035307157243E-01
     -3.31035307157243E-01  -3.31035307157243E-01   0.00000000000000E+00   0.00000000000000E+00  -1.10483020410495E-09
     -2.50318215101046E-14  -1.10485523592646E-09   4.36241415734377E-17   0.00000000000000E+00   0.00000000000000E+00
      0.00000000000000E+00   0.00000000000000E+00   1.10461177544691E-09   2.43460479546044E-13   1.10485523592645E-09
     -4.36241415734376E-17
      3.44500611604065E-01
     -3.44500611604065E-01  -3.44500611604065E-01   0.00000000000000E+00   0.00000000000000E+00  -1.62305265346405E-09
     -4.21384582778173E-14  -1.62309479192233E-09   4.35160508600281E-17   0.00000000000000E+00   0.00000000000000E+00
      0.00000000000000E+00   0.00000000000000E+00   1.62275950287840E-09   3.35289043925580E-13   1.62309479192232E-09
     -4.35160508600282E-17
      3.56888691695141E-01
     -3.56888691695141E-01  -3.56888691695141E-01   0.00000000000000E+00   0.00000000000000E+00  -2.29129585990973E-09
     -6.80401690075433E-14  -2.29136390007874E-09   4.34075327124771E-17   0.00000000000000E+00   0.00000000000000E+00
      0.00000000000000E+00   0.00000000000000E+00   2.29091319129167E-09   4.50708787081704E-13   2.29136390007875E-09
     -4.34075327124772E-17
      3.68120550977716E-01
     -3.68120550977716E-01  -3.68120550977716E-01   0.00000000000000E+00   0.00000000000000E+00  -3.10826641790062E-09
     -1.05057650401683E-13  -3.10837147555102E-09   4.32990327369752E-17   0.00000000000000E+00   0.00000000000000E+00
      0.00000000000000E+00   0.00000000000000E+00   3.10778107135953E-09   5.90404191492445E-13   3.10837147555102E-09
     -4.32990327369753E-17
      3.78453861517686E-01
     -3.78453861517686E-01  -3.78453861517686E-01   0.00000000000000E+00   0.00000000000000E+00  -4.08801861224373E-09
     -1.56671485792810E-13  -4.08817528372952E-09   4.31882567324342E-17   0.00000000000000E+00   0.00000000000000E+00
      0.00000000000000E+00   0.00000000000000E+00   4.08741675078001E-09   7.58532949509595E-13   4.08817528372952E-09
     -4.31882567324342E-17
      3.97467152911230E-01
     -3.97467152911230E-01  -3.97467152911230E-01   0.00000000000000E+00   0.00000000000000E+00  -6.65693392858443E-09
     -3.26831299566183E-13  -6.65726075988400E-09   4.29477353457795E-17   0.00000000000000E+00   0.00000000000000E+00
      0.00000000000000E+00   0.00000000000000E+00   6.65604769757102E-09   1.21306231297171E-12   6.65726075988399E-09
     -4.29477353457795E-17
      4.13184807129893E-01
     -4.13184807129893E-01  -4.13184807129893E-01   0.00000000000000E+00   0.00000000000000E+00  -9.80508595116276E-09
     -6.00180445888605E-13  -9.80568613160865E-09   4.27002677284792E-17   0.00000000000000E+00   0.00000000000000E+00
      0.00000000000000E+00   0.00000000000000E+00   9.80387584533153E-09   1.81028627711755E-12   9.80568613160865E-09
     -4.27002677284792E-17
      4.27225911565232E-01
     -4.27225911565232E-01  -4.27225911565232E-01   0.00000000000000E+00   0.00000000000000E+00  -1.37000599016040E-08
     -1.03289227353928E-12  -1.37010927938775E-08   4.24285457579609E-17   0.00000000000000E+00   0.00000000000000E+00
      0.00000000000000E+00   0.00000000000000E+00   1.36984706556303E-08   2.62213824718095E-12   1.37010927938775E-08
     -4.24285457579609E-17
      4.39956512919939E-01
     -4.39956512919939E-01  -4.39956512919939E-01   0.00000000000000E+00   0.00000000000000E+00  -1.83946461017066E-08
     -1.68961792428451E-12  -1.83963357196309E-08   4.21287122798733E-17   0.00000000000000E+00   0.00000000000000E+00
      0.00000000000000E+00   0.00000000000000E+00   1.83926193090768E-08   3.71641055405955E-12   1.83963357196309E-08
     -4.21287122798733E-17
      4.51329183463478E-01
     -4.51329183463478E-01  -4.51329183463478E-01   0.00000000000000E+00   0.00000000000000E+00  -2.37826065275768E-08
     -2.62232005586995E-12  -2.37852288476327E-08   4.18070496058730E-17   0.00000000000000E+00   0.00000000000000E+00
      0.00000000000000E+00   0.00000000000000E+00   2.37800943100143E-08   5.13453761841071E-12   2.37852288476327E-08
     -4.18070496058730E-17
      4.71648354834600E-01
     -4.71648354834600E-01  -4.71648354834600E-01   0.00000000000000E+00   0.00000000000000E+00  -3.71438182501970E-08
     -5.74940258880513E-12  -3.71495676527858E-08   4.10691993200847E-17   0.00000000000000E+00   0.00000000000000E+00
      0.00000000000000E+00   0.00000000000000E+00   3.71401471692309E-08   9.42048355492638E-12   3.71495676527858E-08
     -4.10691993200847E-17
      4.87903691931498E-01
     -4.87903691931498E-01  -4.87903691931498E-01   0.00000000000000E+00   0.00000000000000E+00  -5.25119791933429E-08
     -1.07692171601053E-11  -5.25227484105030E-08   4.02832796649157E-17   0.00000000000000E+00   0.00000000000000E+00
      0.00000000000000E+00   0.00000000000000E+00   5.25070189114861E-08   1.57294990169566E-11   5.25227484105031E-08
     -4.02832796649156E-17
      5.01991650748810E-01
     -5.01991650748810E-01  -5.01991650748810E-01   0.00000000000000E+00   0.00000000000000E+00  -7.04438272080551E-08
     -1.85435086138524E-11  -7.04623707166690E-08   3.94205190247092E-17   0.00000000000000E+00   0.00000000000000E+00
      0.00000000000000E+00   0.00000000000000E+00   7.04373944103784E-08   2.49763062905157E-11   7.04623707166689E-08
     -3.94205190247093E-17
      5.14576893958941E-01
     -5.14576893958941E-01  -5.14576893958941E-01   0.00000000000000E+00   0.00000000000000E+00  -9.11944731972474E-08
     -3.01148194506085E-11  -9.12245880166980E-08   3.84758838443713E-17   0.00000000000000E+00   0.00000000000000E+00
      0.00000000000000E+00   0.00000000000000E+00   9.11863615034769E-08   3.82265132212272E-11   9.12245880166981E-08
     -3.84758838443713E-17
      5.25651907983857E-01
     -5.25651907983857E-01  -5.25651907983857E-01   0.00000000000000E+00   0.00000000000000E+00  -1.14121259801925E-07
     -4.61135047116992E-11  -1.14167373306636E-07   3.74860968696381E-17   0.00000000000000E+00   0.00000000000000E+00
      0.00000000000000E+00   0.00000000000000E+00   1.14111312860211E-07   5.60604464252261E-11   1.14167373306636E-07
     -3.74860968696381E-17
      5.35693254033114E-01
     -5.35693254033114E-01  -5.35693254033114E-01   0.00000000000000E+00   0.00000000000000E+00  -1.39554166381774E-07
     -6.78121562884203E-11  -1.39621978538063E-07   3.64443265627302E-17   0.00000000000000E+00   0.00000000000000E+00
      0.00000000000000E+00   0.00000000000000E+00   1.39542199694851E-07   7.97788432120021E-11   1.39621978538063E-07
     -3.64443265627302E-17
      5.54437099991727E-01
     -5.54437099991727E-01  -5.54437099991727E-01   0.00000000000000E+00   0.00000000000000E+00  -2.02149217754076E-07
     -1.38942244610735E-10  -2.02288159998686E-07   3.40916635705938E-17   0.00000000000000E+00   0.00000000000000E+00
      0.00000000000000E+00   0.00000000000000E+00   2.02132324213650E-07   1.55835785036345E-10   2.02288159998686E-07
     -3.40916635705938E-17
      5.68932340866388E-01
     -5.68932340866388E-01  -5.68932340866388E-01   0.00000000000000E+00   0.00000000000000E+00  -2.68073716807220E-07
     -2.41141960052073E-10  -2.68314858767272E-07   3.18856954129857E-17   0.00000000000000E+00   0.00000000000000E+00
      0.00000000000000E+00   0.00000000000000E+00   2.68051672858774E-07   2.63185908498643E-10   2.68314858767272E-07
     -3.18856954129857E-17
      5.81301613079431E-01
     -5.81301613079431E-01  -5.81301613079431E-01   0.00000000000000E+00   0.00000000000000E+00  -3.40023324872115E-07
     -3.84635746278780E-10  -3.40407960618394E-07   2.97415237714228E-17   0.00000000000000E+00   0.00000000000000E+00
      0.00000000000000E+00   0.00000000000000E+00   3.39995682537439E-07   4.12278080954899E-10   3.40407960618394E-07
     -2.97415237714228E-17
      5.92021648997403E-01
     -5.92021648997403E-01  -5.92021648997403E-01   0.00000000000000E+00   0.00000000000000E+00  -4.16741792593034E-07
     -5.74339203706200E-10  -4.17316131796740E-07   2.77090558370320E-17   0.00000000000000E+00   0.00000000000000E+00
      0.00000000000000E+00   0.00000000000000E+00   4.16708193346563E-07   6.07938450176545E-10   4.17316131796740E-07
     -2.77090558370320E-17
      6.01455280605217E-01
     -6.01455280605217E-01  -6.01455280605217E-01   0.00000000000000E+00   0.00000000000000E+00  -4.97291054079574E-07
     -8.14183694443927E-10  -4.98105237774018E-07   2.58120046123868E-17   0.00000000000000E+00   0.00000000000000E+00
      0.00000000000000E+00   0.00000000000000E+00   4.97251205983773E-07   8.54031790245307E-10   4.98105237774018E-07
     -2.58120046123869E-17
      6.10260003439178E-01
     -6.10260003439178E-01  -6.10260003439178E-01   0.00000000000000E+00   0.00000000000000E+00  -5.85092058388927E-07
     -1.12291669626043E-09  -5.86214975085187E-07   2.39763707829891E-17   0.00000000000000E+00   0.00000000000000E+00
      0.00000000000000E+00   0.00000000000000E+00   5.85045399841833E-07   1.16957524335507E-09   5.86214975085188E-07
     -2.39763707829891E-17
      6.18477744750874E-01
     -6.18477744750874E-01  -6.18477744750874E-01   0.00000000000000E+00   0.00000000000000E+00  -6.79325511494632E-07
     -1.50891338286731E-09  -6.80834424877499E-07   2.22322400084593E-17   0.00000000000000E+00   0.00000000000000E+00
      0.00000000000000E+00   0.00000000000000E+00   6.79271541289388E-07   1.56288358810934E-09   6.80834424877498E-07
     -2.22322400084593E-17
      6.26147636641791E-01
     -6.26147636641791E-01  -6.26147636641791E-01   0.00000000000000E+00   0.00000000000000E+00  -7.78965916613252E-07
     -1.97826012601722E-09  -7.80944176739270E-07   2.06009889116318E-17   0.00000000000000E+00   0.00000000000000E+00
      0.00000000000000E+00   0.00000000000000E+00   7.78904210833989E-07   2.03996590528072E-09   7.80944176739270E-07
     -2.06009889116317E-17
      6.33306202406646E-01
     -6.33306202406646E-01  -6.33306202406646E-01   0.00000000000000E+00   0.00000000000000E+00  -8.82831646027945E-07
     -2.53404248247622E-09  -8.85365688510422E-07   1.90956432573734E-17   0.00000000000000E+00   0.00000000000000E+00
      0.00000000000000E+00   0.00000000000000E+00   8.82761871182008E-07   2.60381732841396E-09   8.85365688510421E-07
     -1.90956432573734E-17
      6.46859753588106E-01
     -6.46859753588106E-01  -6.46859753588106E-01   0.00000000000000E+00   0.00000000000000E+00  -1.10964550953865E-06
     -3.98131196794124E-09  -1.11362682150659E-06   1.63556852617982E-17   0.00000000000000E+00   0.00000000000000E+00
      0.00000000000000E+00   0.00000000000000E+00   1.10955809629911E-06   4.06872520748169E-09   1.11362682150659E-06
     -1.63556852617982E-17
      6.58606164612038E-01
     -6.58606164612038E-01  -6.58606164612038E-01   0.00000000000000E+00   0.00000000000000E+00  -1.33817173113013E-06
     -5.75861828358420E-09  -1.34393034941372E-06   1.41684616249886E-17   0.00000000000000E+00   0.00000000000000E+00
      0.00000000000000E+00   0.00000000000000E+00   1.33806652988199E-06   5.86381953173162E-09   1.34393034941372E-06
     -1.41684616249886E-17
      6.69569481567708E-01
     -6.69569481567708E-01  -6.69569481567708E-01   0.00000000000000E+00   0.00000000000000E+00  -1.57590895061849E-06
     -7.94020886799422E-09  -1.58384915948648E-06   1.23360130733605E-17   0.00000000000000E+00   0.00000000000000E+00
      0.00000000000000E+00   0.00000000000000E+00   1.57578524238059E-06   8.06391710589462E-09   1.58384915948648E-06
     -1.23360130733605E-17
      6.79801910726333E-01
     -6.79801910726333E-01  -6.79801910726333E-01   0.00000000000000E+00   0.00000000000000E+00  -1.81492082407764E-06
     -1.04669412860971E-08  -1.82538776536374E-06   1.08326009458968E-17   0.00000000000000E+00   0.00000000000000E+00
      0.00000000000000E+00   0.00000000000000E+00   1.81477852794054E-06   1.06092374231969E-08   1.82538776536374E-06
     -1.08326009458969E-17
      6.89352177941050E-01
     -6.89352177941050E-01  -6.89352177941050E-01   0.00000000000000E+00   0.00000000000000E+00  -2.04786881242810E-06
     -1.32420447407531E-08  -2.06111085716886E-06   9.61652698201489E-18   0.00000000000000E+00   0.00000000000000E+00
      0.00000000000000E+00   0.00000000000000E+00   2.04770844174465E-06   1.34024154242058E-08   2.06111085716886E-06
     -9.61652698201487E-18
      6.98265760674785E-01
     -6.98265760674785E-01  -6.98265760674785E-01   0.00000000000000E+00   0.00000000000000E+00  -2.26890107901007E-06
     -1.61510847324220E-08  -2.28505216374249E-06   8.64080090311052E-18   0.00000000000000E+00   0.00000000000000E+00
      0.00000000000000E+00   0.00000000000000E+00   2.26872362274934E-06   1.63285409931512E-08   2.28505216374249E-06
     -8.64080090311053E-18
      7.06585104559605E-01
     -7.06585104559605E-01  -7.06585104559605E-01   0.00000000000000E+00   0.00000000000000E+00  -2.47407423369986E-06
     -1.90830038799169E-08  -2.49315723757978E-06   7.86017950662422E-18   0.00000000000000E+00   0.00000000000000E+00
      0.00000000000000E+00   0.00000000000000E+00   2.47388100085644E-06   1.92762367233360E-08   2.49315723757978E-06
     -7.86017950662420E-18
      7.14349825518770E-01
     -7.14349825518770E-01  -7.14349825518770E-01   0.00000000000000E+00   0.00000000000000E+00  -2.66132009175429E-06
     -2.19453831571498E-08  -2.68326547491144E-06   7.23484917607321E-18   0.00000000000000E+00   0.00000000000000E+00
      0.00000000000000E+00   0.00000000000000E+00   2.66111255681961E-06   2.21529180918312E-08   2.68326547491144E-06
     -7.23484917607322E-18
      7.21700428026780E-01
     -7.21700428026780E-01  -7.21700428026780E-01   0.00000000000000E+00   0.00000000000000E+00  -2.83247411912007E-06
     -2.47104691287135E-08  -2.85718458824878E-06   6.72502456740185E-18   0.00000000000000E+00   0.00000000000000E+00
      0.00000000000000E+00   0.00000000000000E+00   2.83225361616254E-06   2.49309720862428E-08   2.85718458824879E-06
     -6.72502456740190E-18
      7.28658998401030E-01
     -7.28658998401030E-01  -7.28658998401030E-01   0.00000000000000E+00   0.00000000000000E+00  -2.98751166833447E-06
     -2.73315445357084E-08  -3.01484321287017E-06   6.30744189801936E-18   0.00000000000000E+00   0.00000000000000E+00
      0.00000000000000E+00   0.00000000000000E+00   2.98727952783179E-06   2.75636850383804E-08   3.01484321287017E-06
     -6.30744189801938E-18
      7.35246445021986E-01
     -7.35246445021986E-01  -7.35246445021986E-01   0.00000000000000E+00   0.00000000000000E+00  -3.12713195108064E-06
     -2.97812826453619E-08  -3.15691323372600E-06   5.96324850276208E-18   0.00000000000000E+00   0.00000000000000E+00
      0.00000000000000E+00   0.00000000000000E+00   3.12688943960489E-06   3.00237941211138E-08   3.15691323372600E-06
     -5.96324850276211E-18
      7.47718677290996E-01
     -7.47718677290996E-01  -7.47718677290996E-01   0.00000000000000E+00   0.00000000000000E+00  -3.37100311076305E-06
     -3.42464472261240E-08  -3.40524955798918E-06   5.42551177941626E-18   0.00000000000000E+00   0.00000000000000E+00
      0.00000000000000E+00   0.00000000000000E+00   3.37074279866590E-06   3.45067593232837E-08   3.40524955798918E-06
     -5.42551177941624E-18
      7.59193130978485E-01
     -7.59193130978485E-01  -7.59193130978485E-01   0.00000000000000E+00   0.00000000000000E+00  -3.57167716996449E-06
     -3.80775469480876E-08  -3.60975471691258E-06   5.03586330474618E-18   0.00000000000000E+00   0.00000000000000E+00
      0.00000000000000E+00   0.00000000000000E+00   3.57140259274669E-06   3.83521241658906E-08   3.60975471691258E-06
     -5.03586330474620E-18
      7.69902621086808E-01
     -7.69902621086808E-01  -7.69902621086808E-01   0.00000000000000E+00   0.00000000000000E+00  -3.73994737562832E-06
     -4.13811005274929E-08  -3.78132847615581E-06   4.74123536599816E-18   0.00000000000000E+00   0.00000000000000E+00
      0.00000000000000E+00   0.00000000000000E+00   3.73966117462358E-06   4.16673015322270E-08   3.78132847615581E-06
     -4.74123536599812E-18
      7.79898145187909E-01
     -7.79898145187909E-01  -7.79898145187909E-01   0.00000000000000E+00   0.00000000000000E+00  -3.88232650216982E-06
     -4.42288713182013E-08  -3.92655537348802E-06   4.51247464979981E-18   0.00000000000000E+00   0.00000000000000E+00
      0.00000000000000E+00   0.00000000000000E+00   3.88203075432334E-06   4.45246191646860E-08   3.92655537348803E-06
     -4.51247464979980E-18
      7.89227301015604E-01
     -7.89227301015604E-01  -7.89227301015604E-01   0.00000000000000E+00   0.00000000000000E+00  -4.00415615262496E-06
     -4.66956701240606E-08  -4.05085182274902E-06   4.33040348979493E-18   0.00000000000000E+00   0.00000000000000E+00
      0.00000000000000E+00   0.00000000000000E+00   4.00385247567595E-06   4.69993470730732E-08   4.05085182274903E-06
     -4.33040348979485E-18
      7.97934513121453E-01
     -7.97934513121453E-01  -7.97934513121453E-01   0.00000000000000E+00   0.00000000000000E+00  -4.10959569420878E-06
     -4.88477077157157E-08  -4.15844340192450E-06   4.18226282612621E-18   0.00000000000000E+00   0.00000000000000E+00
      0.00000000000000E+00   0.00000000000000E+00   4.10928535125047E-06   4.91580506740159E-08   4.15844340192449E-06
     -4.18226282612625E-18
      8.06061244420245E-01
     -8.06061244420245E-01  -8.06061244420245E-01   0.00000000000000E+00   0.00000000000000E+00  -4.20181357047043E-06
     -5.07395634134807E-08  -4.25255313388391E-06   4.05941470568339E-18   0.00000000000000E+00   0.00000000000000E+00
      0.00000000000000E+00   0.00000000000000E+00   4.20149755688946E-06   5.10555769944568E-08   4.25255313388392E-06
     -4.05941470568339E-18
      8.13754550049768E-01
     -8.13754550049768E-01  -8.13754550049768E-01   0.00000000000000E+00   0.00000000000000E+00  -4.28434538537320E-06
     -5.24382042234831E-08  -4.33678358959668E-06   3.95447725623742E-18   0.00000000000000E+00   0.00000000000000E+00
      0.00000000000000E+00   0.00000000000000E+00   4.28402442865658E-06   5.27591609401072E-08   4.33678358959668E-06
     -3.95447725623747E-18
      8.21037546045716E-01
     -8.21037546045716E-01  -8.21037546045716E-01   0.00000000000000E+00   0.00000000000000E+00  -4.35874363224429E-06
     -5.39724701202013E-08  -4.41271610236450E-06   3.86372160437880E-18   0.00000000000000E+00   0.00000000000000E+00
      0.00000000000000E+00   0.00000000000000E+00   4.35841832937745E-06   5.42977729870606E-08   4.41271610236451E-06
     -3.86372160437882E-18
      8.27932115588548E-01