DF-ISE text

Info {
  version   = 1.0
  type      = xyplot
  datasets  = [
    "time"
    "top OuterVoltage" "top InnerVoltage" "top QuasiFermiPotential" "top DisplacementCurrent" "top eCurrent"
    "top hCurrent" "top TotalCurrent" "top Charge" "bottom OuterVoltage" "bottom InnerVoltage"
    "bottom QuasiFermiPotential" "bottom DisplacementCurrent" "bottom eCurrent" "bottom hCurrent" "bottom TotalCurrent"
    "bottom Charge" ]
  functions = [
    Time
    OuterVoltage InnerVoltage QuasiFermiPotential DisplacementCurrent eCurrent
    hCurrent TotalCurrent Charge OuterVoltage InnerVoltage
    QuasiFermiPotential DisplacementCurrent eCurrent hCurrent TotalCurrent
    Charge ]
}

Data {
      0.00000000000000E+00
      0.00000000000000E+00   0.00000000000000E+00   0.00000000000000E+00   0.00000000000000E+00  -1.93877251234732E-21
     -8.15957025288841E-31  -1.93877251316328E-21   7.89017187814586E-17   0.00000000000000E+00   0.00000000000000E+00
      0.00000000000000E+00   0.00000000000000E+00   1.93877251224601E-21   9.17271151928188E-31   1.93877251316328E-21
     -7.89017187814586E-17
      0.00000000000000E+00
      0.00000000000000E+00   0.00000000000000E+00   0.00000000000000E+00   0.00000000000000E+00   1.14812902395684E-20
      7.37369553952689E-32   1.14812902396421E-20   7.89017187887025E-17   0.00000000000000E+00   0.00000000000000E+00
      0.00000000000000E+00   0.00000000000000E+00  -1.14812902395299E-20  -1.12228218528097E-31  -1.14812902396422E-20
     -7.89017187887026E-17
      1.00000000000000E-02
     -1.00000000000000E-02  -1.00000000000000E-02   0.00000000000000E+00   0.00000000000000E+00  -1.58094574014349E-16
     -3.54939988284187E-20  -1.58130068013177E-16   7.85778850254241E-17   0.00000000000000E+00   0.00000000000000E+00
      0.00000000000000E+00   0.00000000000000E+00   1.46292095571159E-16   1.18379724420180E-17   1.58130068013177E-16
     -7.85778850254240E-17
      2.89333333333333E-02
     -2.89333333333333E-02  -2.89333333333333E-02   0.00000000000000E+00   0.00000000000000E+00  -6.66240720130279E-16
     -1.53359796423114E-19  -6.66394079926702E-16   7.79626150298076E-17   0.00000000000000E+00   0.00000000000000E+00
      0.00000000000000E+00   0.00000000000000E+00   6.25521036910180E-16   4.08730430165217E-17   6.66394079926702E-16
     -7.79626150298077E-17
      4.45848888888889E-02
     -4.45848888888889E-02  -4.45848888888889E-02   0.00000000000000E+00   0.00000000000000E+00  -1.44875943990576E-15
     -3.39598957868519E-19  -1.44909903886363E-15   7.74518509269454E-17   0.00000000000000E+00   0.00000000000000E+00
      0.00000000000000E+00   0.00000000000000E+00   1.37501728364280E-15   7.40817552208355E-17   1.44909903886363E-15
     -7.74518509269454E-17
      5.91930074074074E-02
     -5.91930074074074E-02  -5.91930074074074E-02   0.00000000000000E+00   0.00000000000000E+00  -2.72171863560491E-15
     -6.45900079594164E-19  -2.72236453568451E-15   7.69733700557932E-17   0.00000000000000E+00   0.00000000000000E+00
      0.00000000000000E+00   0.00000000000000E+00   2.60647371361066E-15   1.15890822073839E-16   2.72236453568450E-15
     -7.69733700557933E-17
      7.28272513580247E-02
     -7.28272513580247E-02  -7.28272513580247E-02   0.00000000000000E+00   0.00000000000000E+00  -4.72554079305985E-15
     -1.13303685130093E-18  -4.72667382991115E-15   7.65252329526306E-17   0.00000000000000E+00   0.00000000000000E+00
      0.00000000000000E+00   0.00000000000000E+00   4.55876145346567E-15   1.67912376445471E-16   4.72667382991114E-15
     -7.65252329526306E-17
      8.55525457119341E-02
     -8.55525457119341E-02  -8.55525457119341E-02   0.00000000000000E+00   0.00000000000000E+00  -7.77936565877201E-15
     -1.87993286362927E-18  -7.78124559163564E-15   7.61056048325485E-17   0.00000000000000E+00   0.00000000000000E+00
      0.00000000000000E+00   0.00000000000000E+00   7.54950809517456E-15   2.31737496461080E-16   7.78124559163564E-15
     -7.61056048325486E-17
      9.74294871089163E-02
     -9.74294871089163E-02  -9.74294871089163E-02   0.00000000000000E+00   0.00000000000000E+00  -1.22902678013240E-14
     -3.00788976182922E-18  -1.22932756910859E-14   7.57127512425901E-17   0.00000000000000E+00   0.00000000000000E+00
      0.00000000000000E+00   0.00000000000000E+00   1.19843598804241E-14   3.08915810661743E-16   1.22932756910859E-14
     -7.57127512425901E-17
      1.08672991631393E-01
     -1.08672991631393E-01  -1.08672991631393E-01   0.00000000000000E+00   0.00000000000000E+00  -1.88718361573499E-14
     -4.64337634785497E-18  -1.88764795336977E-14   7.53397732570508E-17   0.00000000000000E+00   0.00000000000000E+00
      0.00000000000000E+00   0.00000000000000E+00   1.84741565822875E-14   4.02322951410226E-16   1.88764795336977E-14
     -7.53397732570508E-17
      1.29960693527282E-01
     -1.29960693527282E-01  -1.29960693527282E-01   0.00000000000000E+00   0.00000000000000E+00  -4.22683359034093E-14
     -1.05361798818594E-17  -4.22788720832912E-14   7.46307055902397E-17   0.00000000000000E+00   0.00000000000000E+00
      0.00000000000000E+00   0.00000000000000E+00   4.16238465640604E-14   6.55025519230652E-16   4.22788720832911E-14
     -7.46307055902396E-17
      1.46139346968157E-01
     -1.46139346968157E-01  -1.46139346968157E-01   0.00000000000000E+00   0.00000000000000E+00  -7.78320176310927E-14
     -1.74025262270579E-17  -7.78494201573198E-14   7.40892520129538E-17   0.00000000000000E+00   0.00000000000000E+00
      0.00000000000000E+00   0.00000000000000E+00   7.69121702827376E-14   9.37249874582080E-16   7.78494201573197E-14
     -7.40892520129539E-17
      1.61023708133762E-01
     -1.61023708133762E-01  -1.61023708133762E-01   0.00000000000000E+00   0.00000000000000E+00  -1.36406536098228E-13
     -3.50091125292125E-17  -1.36441545210758E-13   7.35891375696055E-17   0.00000000000000E+00   0.00000000000000E+00
      0.00000000000000E+00   0.00000000000000E+00   1.35124530777991E-13   1.31701443276618E-15   1.36441545210757E-13
     -7.35891375696056E-17
      1.74915778554994E-01
     -1.74915778554994E-01  -1.74915778554994E-01   0.00000000000000E+00   0.00000000000000E+00  -2.30221663652730E-13
     -5.99027358043030E-17  -2.30281566388534E-13   7.31206371061960E-17   0.00000000000000E+00   0.00000000000000E+00
      0.00000000000000E+00   0.00000000000000E+00   2.28482292146898E-13   1.79927424163634E-15   2.30281566388534E-13
     -7.31206371061960E-17
      1.87696483342527E-01
     -1.87696483342527E-01  -1.87696483342527E-01   0.00000000000000E+00   0.00000000000000E+00  -3.72597057385746E-13
     -9.77686630370584E-17  -3.72694826048783E-13   7.26881297083701E-17   0.00000000000000E+00   0.00000000000000E+00
      0.00000000000000E+00   0.00000000000000E+00   3.70294217464622E-13   2.40060858416064E-15   3.72694826048783E-13
     -7.26881297083702E-17
      1.99454731747058E-01
     -1.99454731747058E-01  -1.99454731747058E-01   0.00000000000000E+00   0.00000000000000E+00  -5.80221075859077E-13
     -1.54534220996767E-16  -5.80375610080074E-13   7.22889526021291E-17   0.00000000000000E+00   0.00000000000000E+00
      0.00000000000000E+00   0.00000000000000E+00   5.77238444706410E-13   3.13716537366481E-15   5.80375610080075E-13
     -7.22889526021291E-17
      2.10429096924620E-01
     -2.10429096924620E-01  -2.10429096924620E-01   0.00000000000000E+00   0.00000000000000E+00  -8.77234778286405E-13
     -2.36076218682301E-16  -8.77470854505088E-13   7.19152790219069E-17   0.00000000000000E+00   0.00000000000000E+00
      0.00000000000000E+00   0.00000000000000E+00   8.73434627277228E-13   4.03622722785883E-15   8.77470854505087E-13
     -7.19152790219069E-17
      2.30914578589402E-01
     -2.30914578589402E-01  -2.30914578589402E-01   0.00000000000000E+00   0.00000000000000E+00  -1.89752509669295E-12
     -5.21190522034044E-16  -1.89804628721499E-12   7.12148575893317E-17   0.00000000000000E+00   0.00000000000000E+00
      0.00000000000000E+00   0.00000000000000E+00   1.89153300860415E-12   6.51327861084198E-15   1.89804628721499E-12
     -7.12148575893317E-17
      2.48941802454410E-01
     -2.48941802454410E-01  -2.48941802454410E-01   0.00000000000000E+00   0.00000000000000E+00  -3.74089535146670E-12
     -1.04665652956543E-15  -3.74194200799627E-12   7.05953159969379E-17   0.00000000000000E+00   0.00000000000000E+00
      0.00000000000000E+00   0.00000000000000E+00   3.73190656384323E-12   1.00354441530355E-14   3.74194200799627E-12
     -7.05953159969379E-17
      2.65286485425351E-01
     -2.65286485425351E-01  -2.65286485425351E-01   0.00000000000000E+00   0.00000000000000E+00  -6.92064917087641E-12
     -1.96983025138164E-15  -6.92261900112779E-12   7.00309767466120E-17   0.00000000000000E+00   0.00000000000000E+00
      0.00000000000000E+00   0.00000000000000E+00   6.90760030138999E-12   1.50186997378024E-14   6.92261900112780E-12
     -7.00309767466120E-17
      2.80323593758616E-01
     -2.80323593758616E-01  -2.80323593758616E-01   0.00000000000000E+00   0.00000000000000E+00  -1.21847740904551E-11
     -3.52406217650273E-15  -1.21882981526316E-11   6.95095239460409E-17   0.00000000000000E+00   0.00000000000000E+00
      0.00000000000000E+00   0.00000000000000E+00   1.21662933468862E-11   2.20048057453754E-14   1.21882981526316E-11
     -6.95095239460408E-17
      2.94157733425221E-01
     -2.94157733425221E-01  -2.94157733425221E-01   0.00000000000000E+00   0.00000000000000E+00  -2.04968975601592E-11
     -6.01685819928772E-15  -2.05029144183585E-11   6.90278076104440E-17   0.00000000000000E+00   0.00000000000000E+00
      0.00000000000000E+00   0.00000000000000E+00   2.04713139219417E-11   3.16004964167100E-14   2.05029144183584E-11
     -6.90278076104440E-17
      3.06700686722942E-01
     -3.06700686722942E-01  -3.06700686722942E-01   0.00000000000000E+00   0.00000000000000E+00  -3.28336047693899E-11
     -9.77347024238704E-15  -3.28433782396323E-11   6.85893363309264E-17   0.00000000000000E+00   0.00000000000000E+00
      0.00000000000000E+00   0.00000000000000E+00   3.27990851036259E-11   4.42931360064492E-14   3.28433782396323E-11
     -6.85893363309263E-17
      3.18407443134148E-01
     -3.18407443134148E-01  -3.18407443134148E-01   0.00000000000000E+00   0.00000000000000E+00  -5.09485469897503E-11
     -1.53739595920378E-14  -5.09639209493424E-11   6.81785355585757E-17   0.00000000000000E+00   0.00000000000000E+00
      0.00000000000000E+00   0.00000000000000E+00   5.09026877510494E-11   6.12331982929221E-14   5.09639209493423E-11
     -6.81785355585757E-17
      3.40260055101734E-01
     -3.40260055101734E-01  -3.40260055101734E-01   0.00000000000000E+00   0.00000000000000E+00  -1.15529294010063E-10
     -3.57918562642361E-14  -1.15565085866327E-10   6.74072118206643E-17   0.00000000000000E+00   0.00000000000000E+00
      0.00000000000000E+00   0.00000000000000E+00   1.15450376994886E-10   1.14708871441852E-13   1.15565085866327E-10
     -6.74072118206643E-17
      3.57159408356666E-01
     -3.57159408356666E-01  -3.57159408356666E-01   0.00000000000000E+00   0.00000000000000E+00  -2.17194990578701E-10
     -6.88117953380247E-14  -2.17263802374039E-10   6.68059189644186E-17   0.00000000000000E+00   0.00000000000000E+00
      0.00000000000000E+00   0.00000000000000E+00   2.17073453710987E-10   1.90348663052188E-13   2.17263802374039E-10
     -6.68059189644186E-17
      3.72481488641139E-01
     -3.72481488641139E-01  -3.72481488641139E-01   0.00000000000000E+00   0.00000000000000E+00  -3.84144147934268E-10
     -1.24464096080751E-13  -3.84268612030349E-10   6.62559897527705E-17   0.00000000000000E+00   0.00000000000000E+00
      0.00000000000000E+00   0.00000000000000E+00   3.83962693943209E-10   3.05918087140373E-13   3.84268612030349E-10
     -6.62559897527705E-17
      3.86373508099060E-01
     -3.86373508099060E-01  -3.86373508099060E-01   0.00000000000000E+00   0.00000000000000E+00  -6.42558548729242E-10
     -2.13010385984544E-13  -6.42771559115226E-10   6.57520467205489E-17   0.00000000000000E+00   0.00000000000000E+00
      0.00000000000000E+00   0.00000000000000E+00   6.42295690007135E-10   4.75869108092082E-13   6.42771559115227E-10
     -6.57520467205488E-17
      3.99154166000348E-01
     -3.99154166000348E-01  -3.99154166000348E-01   0.00000000000000E+00   0.00000000000000E+00  -1.02833141968346E-09
     -3.49208061411804E-13  -1.02868062774487E-09   6.52821210988256E-17   0.00000000000000E+00   0.00000000000000E+00
      0.00000000000000E+00   0.00000000000000E+00   1.02795980504348E-09   7.20822701390066E-13   1.02868062774487E-09
     -6.52821210988255E-17
      4.10741962497516E-01
     -4.10741962497516E-01  -4.10741962497516E-01   0.00000000000000E+00   0.00000000000000E+00  -1.56955949445470E-09
     -5.46672034033250E-13  -1.57010616648874E-09   6.48486988703320E-17   0.00000000000000E+00   0.00000000000000E+00
      0.00000000000000E+00   0.00000000000000E+00   1.56904914997834E-09   1.05701651039892E-12   1.57010616648874E-09
     -6.48486988703320E-17
      4.21402735274910E-01
     -4.21402735274910E-01  -4.21402735274910E-01   0.00000000000000E+00   0.00000000000000E+00  -2.30693497789594E-09
     -8.25644157886611E-13  -2.30776062205383E-09   6.44413337340255E-17   0.00000000000000E+00   0.00000000000000E+00
      0.00000000000000E+00   0.00000000000000E+00   2.30625060653951E-09   1.51001551432674E-12   2.30776062205384E-09
     -6.44413337340255E-17
      4.31210646230113E-01
     -4.31210646230113E-01  -4.31210646230113E-01   0.00000000000000E+00   0.00000000000000E+00  -3.27393787110131E-09
     -1.20650097290490E-12  -3.27514437207421E-09   6.40566061677477E-17   0.00000000000000E+00   0.00000000000000E+00
      0.00000000000000E+00   0.00000000000000E+00   3.27304134050281E-09   2.10303157140663E-12   3.27514437207422E-09
     -6.40566061677477E-17
      4.49257202387686E-01
     -4.49257202387686E-01  -4.49257202387686E-01   0.00000000000000E+00   0.00000000000000E+00  -6.14813738027786E-09
     -2.42447453344784E-12  -6.15056185481131E-09   6.33123227201288E-17   0.00000000000000E+00   0.00000000000000E+00
      0.00000000000000E+00   0.00000000000000E+00   6.14667029032049E-09   3.89156449082256E-12   6.15056185481131E-09
     -6.33123227201288E-17
      4.65138171806350E-01
     -4.65138171806350E-01  -4.65138171806350E-01   0.00000000000000E+00   0.00000000000000E+00  -1.04988627758761E-08
     -4.48023475125708E-12  -1.05033430106274E-08   6.25985518033950E-17   0.00000000000000E+00   0.00000000000000E+00
      0.00000000000000E+00   0.00000000000000E+00   1.04966240547060E-08   6.71895592135777E-12   1.05033430106274E-08
     -6.25985518033951E-17
      4.78901678635859E-01
     -4.78901678635859E-01  -4.78901678635859E-01   0.00000000000000E+00   0.00000000000000E+00  -1.63944777978888E-08
     -7.62753341572217E-12  -1.64021053313045E-08   6.19129522723300E-17   0.00000000000000E+00   0.00000000000000E+00
      0.00000000000000E+00   0.00000000000000E+00   1.63912897278504E-08   1.08156034541470E-11   1.64021053313045E-08
     -6.19129522723300E-17
      4.91380591494614E-01
     -4.91380591494614E-01  -4.91380591494614E-01   0.00000000000000E+00   0.00000000000000E+00  -2.41625011957634E-08
     -1.23552292282676E-11  -2.41748564249916E-08   6.12164919981681E-17   0.00000000000000E+00   0.00000000000000E+00
      0.00000000000000E+00   0.00000000000000E+00   2.41581628164242E-08   1.66936085674679E-11   2.41748564249916E-08
     -6.12164919981681E-17
      5.02694805819885E-01
     -5.02694805819885E-01  -5.02694805819885E-01   0.00000000000000E+00   0.00000000000000E+00  -3.38708176157713E-08
     -1.91298545094635E-11  -3.38899474702808E-08   6.05044097581123E-17   0.00000000000000E+00   0.00000000000000E+00
      0.00000000000000E+00   0.00000000000000E+00   3.38651429859438E-08   2.48044843370360E-11   3.38899474702808E-08
     -6.05044097581124E-17
      5.22607823032362E-01
     -5.22607823032362E-01  -5.22607823032362E-01   0.00000000000000E+00   0.00000000000000E+00  -5.94622196952204E-08
     -4.12741756907597E-11  -5.95034938709112E-08   5.90025078384796E-17   0.00000000000000E+00   0.00000000000000E+00
      0.00000000000000E+00   0.00000000000000E+00   5.94533324467451E-08   5.01614241660643E-11   5.95034938709112E-08
     -5.90025078384796E-17
      5.36414181633012E-01
     -5.36414181633012E-01  -5.36414181633012E-01   0.00000000000000E+00   0.00000000000000E+00  -8.59165993707080E-08
     -7.03105624428667E-11  -8.59869099331509E-08   5.77185185811559E-17   0.00000000000000E+00   0.00000000000000E+00
      0.00000000000000E+00   0.00000000000000E+00   8.59046590874985E-08   8.22508456524111E-11   8.59869099331509E-08
     -5.77185185811560E-17
      5.48195607638901E-01
     -5.48195607638901E-01  -5.48195607638901E-01   0.00000000000000E+00   0.00000000000000E+00  -1.16110093601549E-07
     -1.10722162580667E-10  -1.16220815764130E-07   5.64241413225063E-17   0.00000000000000E+00   0.00000000000000E+00
      0.00000000000000E+00   0.00000000000000E+00   1.16094858966463E-07   1.25956797666261E-10   1.16220815764130E-07
     -5.64241413225064E-17
      5.58877433884240E-01
     -5.58877433884240E-01  -5.58877433884240E-01   0.00000000000000E+00   0.00000000000000E+00  -1.51163495696140E-07
     -1.67042538147416E-10  -1.51330538234287E-07   5.50644080967650E-17   0.00000000000000E+00   0.00000000000000E+00
      0.00000000000000E+00   0.00000000000000E+00   1.51144597552358E-07   1.85940681928892E-10   1.51330538234287E-07
     -5.50644080967650E-17
      5.68847138379890E-01
     -5.68847138379890E-01  -5.68847138379890E-01   0.00000000000000E+00   0.00000000000000E+00  -1.91993184822948E-07
     -2.45058701802975E-10  -1.92238243524751E-07   5.36144248342005E-17   0.00000000000000E+00   0.00000000000000E+00
      0.00000000000000E+00   0.00000000000000E+00   1.91970163813055E-07   2.68079711695582E-10   1.92238243524751E-07
     -5.36144248342006E-17
      5.86393818292233E-01
     -5.86393818292233E-01  -5.86393818292233E-01   0.00000000000000E+00   0.00000000000000E+00  -2.88160989692288E-07
     -4.80191325798405E-10  -2.88641181018086E-07   5.05866759074552E-17   0.00000000000000E+00   0.00000000000000E+00
      0.00000000000000E+00   0.00000000000000E+00   2.88128629494802E-07   5.12551523283937E-10   2.88641181018086E-07
     -5.05866759074553E-17
      6.01834896615096E-01
     -6.01834896615096E-01  -6.01834896615096E-01   0.00000000000000E+00   0.00000000000000E+00  -4.06382708337024E-07
     -8.65534841439390E-10  -4.07248243178464E-07   4.73777047865405E-17   0.00000000000000E+00   0.00000000000000E+00
      0.00000000000000E+00   0.00000000000000E+00   4.06339270357019E-07   9.08972821445521E-10   4.07248243178464E-07
     -4.73777047865405E-17
      6.15011283450605E-01
     -6.15011283450605E-01  -6.15011283450605E-01   0.00000000000000E+00   0.00000000000000E+00  -5.40155713980708E-07
     -1.42658741196798E-09  -5.41582301392676E-07   4.42273013534034E-17   0.00000000000000E+00   0.00000000000000E+00
      0.00000000000000E+00   0.00000000000000E+00   5.40100029144060E-07   1.48227224861499E-09   5.41582301392675E-07
     -4.42273013534034E-17
      6.27133559339273E-01
     -6.27133559339273E-01  -6.27133559339273E-01   0.00000000000000E+00   0.00000000000000E+00  -6.97211477470667E-07
     -2.25128904254172E-09  -6.99462766513208E-07   4.10134358940964E-17   0.00000000000000E+00   0.00000000000000E+00
      0.00000000000000E+00   0.00000000000000E+00   6.97141634192258E-07   2.32113232095021E-09   6.99462766513208E-07
     -4.10134358940964E-17
      6.38286053156848E-01
     -6.38286053156848E-01  -6.38286053156848E-01   0.00000000000000E+00   0.00000000000000E+00  -8.77040561324405E-07
     -3.41172243420905E-09  -8.80452283758614E-07   3.78267365857395E-17   0.00000000000000E+00   0.00000000000000E+00
      0.00000000000000E+00   0.00000000000000E+00   8.76954674723533E-07   3.49760903508007E-09   8.80452283758613E-07
     -3.78267365857395E-17
      6.48695047386585E-01
     -6.48695047386585E-01  -6.48695047386585E-01   0.00000000000000E+00   0.00000000000000E+00  -1.08146473566947E-06
     -5.00612455145162E-09  -1.08647086022092E-06   3.47011382349057E-17   0.00000000000000E+00   0.00000000000000E+00
      0.00000000000000E+00   0.00000000000000E+00   1.08136073475656E-06   5.11012546435867E-09   1.08647086022092E-06
     -3.47011382349057E-17
      6.58410108667672E-01
     -6.58410108667672E-01  -6.58410108667672E-01   0.00000000000000E+00   0.00000000000000E+00  -1.30949117252141E-06
     -7.12393003881783E-09  -1.31661510256023E-06   3.17035688355344E-17   0.00000000000000E+00   0.00000000000000E+00
      0.00000000000000E+00   0.00000000000000E+00   1.30936704738779E-06   7.24805517243044E-09   1.31661510256022E-06
     -3.17035688355344E-17
      6.76544889725702E-01
     -6.76544889725702E-01  -6.76544889725702E-01   0.00000000000000E+00   0.00000000000000E+00  -1.84901840769708E-06
     -1.35228572286824E-08  -1.86254126492576E-06   2.61001007820611E-17   0.00000000000000E+00   0.00000000000000E+00
      0.00000000000000E+00   0.00000000000000E+00   1.84884676501862E-06   1.36944999071395E-08   1.86254126492576E-06
     -2.61001007820610E-17
      6.84161497770075E-01
     -6.84161497770075E-01  -6.84161497770075E-01   0.00000000000000E+00   0.00000000000000E+00  -2.12592171370482E-06
     -1.75448184019181E-08  -2.14346653210674E-06   2.38214980711043E-17   0.00000000000000E+00   0.00000000000000E+00
      0.00000000000000E+00   0.00000000000000E+00   2.12572566102980E-06   1.77408710769439E-08   2.14346653210674E-06
     -2.38214980711043E-17
      6.98582275667420E-01
     -6.98582275667420E-01  -6.98582275667420E-01   0.00000000000000E+00   0.00000000000000E+00  -2.74048983508577E-06
     -2.81978332876802E-08  -2.76868766837345E-06   1.97658461712289E-17   0.00000000000000E+00   0.00000000000000E+00
      0.00000000000000E+00   0.00000000000000E+00   2.74023942787489E-06   2.84482404985703E-08   2.76868766837346E-06
     -1.97658461712289E-17
      7.11272560217085E-01
     -7.11272560217085E-01  -7.11272560217085E-01   0.00000000000000E+00   0.00000000000000E+00  -3.38260972357444E-06
     -4.17804325949822E-08  -3.42439015616942E-06   1.65796314340074E-17   0.00000000000000E+00   0.00000000000000E+00
      0.00000000000000E+00   0.00000000000000E+00   3.38230217575015E-06   4.20879804192744E-08   3.42439015616942E-06
     -1.65796314340073E-17
      7.23116825796771E-01
     -7.23116825796771E-01  -7.23116825796771E-01   0.00000000000000E+00   0.00000000000000E+00  -4.06482400933129E-06
     -5.88342105066276E-08  -4.12365821983792E-06   1.39922892431928E-17   0.00000000000000E+00   0.00000000000000E+00
      0.00000000000000E+00   0.00000000000000E+00   4.06445531117147E-06   5.92029086664503E-08   4.12365821983792E-06
     -1.39922892431929E-17
      7.34171473671145E-01
     -7.34171473671145E-01  -7.34171473671145E-01   0.00000000000000E+00   0.00000000000000E+00  -4.76540234854909E-06
     -7.90294079310617E-08  -4.84443175648015E-06   1.19313296257964E-17   0.00000000000000E+00   0.00000000000000E+00
      0.00000000000000E+00   0.00000000000000E+00   4.76497037213117E-06   7.94613843489752E-08   4.84443175648014E-06
     -1.19313296257964E-17
      7.44489145020561E-01
     -7.44489145020561E-01  -7.44489145020561E-01   0.00000000000000E+00   0.00000000000000E+00  -5.46332247774811E-06
     -1.01721185049074E-07  -5.56504366279718E-06   1.03075152571572E-17   0.00000000000000E+00   0.00000000000000E+00
      0.00000000000000E+00   0.00000000000000E+00   5.46282699690065E-06   1.02216665896530E-07   5.56504366279718E-06
     -1.03075152571572E-17
      7.54118971613349E-01
     -7.54118971613349E-01  -7.54118971613349E-01   0.00000000000000E+00   0.00000000000000E+00  -6.14073847185793E-06
     -1.26083440117202E-07  -6.26682191197513E-06   9.03321360750525E-18   0.00000000000000E+00   0.00000000000000E+00
      0.00000000000000E+00   0.00000000000000E+00   6.14018094217577E-06   1.26640969799357E-07   6.26682191197513E-06
     -9.03321360750521E-18
      7.62464821327098E-01
     -7.62464821327098E-01  -7.62464821327098E-01   0.00000000000000E+00   0.00000000000000E+00  -6.73822583709629E-06
     -1.49391739497683E-07  -6.88761757659397E-06   8.09781056584212E-18   0.00000000000000E+00   0.00000000000000E+00
      0.00000000000000E+00   0.00000000000000E+00   6.73761328090483E-06   1.50004295689158E-07   6.88761757659399E-06
     -8.09781056584215E-18
      7.78266296785131E-01
     -7.78266296785131E-01  -7.78266296785131E-01   0.00000000000000E+00   0.00000000000000E+00  -7.86563455204214E-06
     -1.97744742075561E-07  -8.06337929411770E-06   6.69047205021703E-18   0.00000000000000E+00   0.00000000000000E+00
      0.00000000000000E+00   0.00000000000000E+00   7.86491754362761E-06   1.98461750490095E-07   8.06337929411771E-06
     -6.69047205021704E-18
      7.92803654206521E-01
     -7.92803654206521E-01  -7.92803654206521E-01   0.00000000000000E+00   0.00000000000000E+00  -8.86367126854491E-06
     -2.44980763529109E-07  -9.10865203207402E-06   5.73052943188476E-18   0.00000000000000E+00   0.00000000000000E+00
      0.00000000000000E+00   0.00000000000000E+00   8.86286132422545E-06   2.45790707848573E-07   9.10865203207402E-06
     -5.73052943188478E-18
      8.06371854466485E-01
     -8.06371854466485E-01  -8.06371854466485E-01   0.00000000000000E+00   0.00000000000000E+00  -9.73702407168106E-06
     -2.89443799897149E-07  -1.00264678715782E-05   5.05007418572687E-18   0.00000000000000E+00   0.00000000000000E+00
      0.00000000000000E+00   0.00000000000000E+00   9.73613264337618E-06   2.90335228202024E-07   1.00264678715782E-05
     -5.05007418572678E-18
      8.19035508042452E-01
     -8.19035508042452E-01  -8.19035508042452E-01   0.00000000000000E+00   0.00000000000000E+00  -1.04917155197537E-05
     -3.30029265371146E-07  -1.08217447851248E-05   4.55444422548308E-18   0.00000000000000E+00   0.00000000000000E+00
      0.00000000000000E+00   0.00000000000000E+00   1.04907537045971E-05   3.30991080527708E-07   1.08217447851248E-05
     -4.55444422548307E-18
      8.30854918046687E-01
     -8.30854918046687E-01  -8.30854918046687E-01   0.00000000000000E+00   0.00000000000000E+00  -1.11420359339835E-05
     -3.66491966223316E-07  -1.15085279002068E-05   4.18285711996115E-18   0.00000000000000E+00   0.00000000000000E+00
      0.00000000000000E+00   0.00000000000000E+00   1.11410135766125E-05   3.67514323594237E-07   1.15085279002068E-05
     -4.18285711996114E-18
      8.41886367383973E-01
     -8.41886367383973E-01  -8.41886367383973E-01   0.00000000000000E+00   0.00000000000000E+00  -1.17042945739658E-05
     -3.99056423594132E-07  -1.21033509975600E-05   3.89632556283670E-18   0.00000000000000E+00   0.00000000000000E+00
      0.00000000000000E+00   0.00000000000000E+00   1.17032200044431E-05   4.00130993116903E-07   1.21033509975600E-05
     -3.89632556283667E-18
      8.52182386765440E-01
     -8.52182386765440E-01  -8.52182386765440E-01   0.00000000000000E+00   0.00000000000000E+00  -1.21936274836739E-05
     -4.28138531875095E-07  -1.26217660155490E-05   3.66959758522761E-18   0.00000000000000E+00   0.00000000000000E+00
      0.00000000000000E+00   0.00000000000000E+00   1.21925075956731E-05   4.29258419875939E-07   1.26217660155491E-05
     -3.66959758522766E-18
      8.61792004854810E-01
     -8.61792004854810E-01  -8.61792004854810E-01   0.00000000000000E+00   0.00000000000000E+00  -1.26228328733170E-05
     -4.54189926872465E-07  -1.30770228001895E-05   3.48604768932868E-18   0.00000000000000E+00   0.00000000000000E+00
      0.00000000000000E+00   0.00000000000000E+00   1.26216733352259E-05   4.55349464963624E-07   1.30770228001895E-05
     -3.48604768932862E-18
      8.70889109979413E-01
     -8.70889109979413E-01  -8.70889109979413E-01   0.00000000000000E+00   0.00000000000000E+00  -1.30075394240566E-05
     -4.77956504425660E-07  -1.34854959284823E-05   3.33245969487249E-18   0.00000000000000E+00   0.00000000000000E+00
      0.00000000000000E+00   0.00000000000000E+00   1.30063444248985E-05   4.79151503583736E-07   1.34854959284822E-05
     -3.33245969487256E-18
      8.88112962348661E-01
     -8.88112962348661E-01  -8.88112962348661E-01   0.00000000000000E+00   0.00000000000000E+00  -1.36871078090702E-05
     -5.20868025578662E-07  -1.42079758346488E-05   3.08357104431600E-18   0.00000000000000E+00   0.00000000000000E+00
      0.00000000000000E+00   0.00000000000000E+00   1.36858503330196E-05   5.22125501629236E-07   1.42079758346488E-05
     -3.08357104431599E-18
      9.03499603798523E-01
     -9.03499603798523E-01  -9.03499603798523E-01   0.00000000000000E+00   0.00000000000000E+00  -1.42497915733540E-05
     -5.57268840169175E-07  -1.48070604135232E-05   2.89658465293022E-18   0.00000000000000E+00   0.00000000000000E+00
      0.00000000000000E+00   0.00000000000000E+00   1.42484824964883E-05   5.58577917034855E-07   1.48070604135232E-05
     -2.89658465293016E-18
      9.17860469151728E-01
     -9.17860469151728E-01  -9.17860469151728E-01   0.00000000000000E+00   0.00000000000000E+00  -1.47445394070851E-05
     -5.89906568294927E-07  -1.53344459753801E-05   2.74470352768588E-18   0.00000000000000E+00   0.00000000000000E+00
      0.00000000000000E+00   0.00000000000000E+00   1.47431850332015E-05   5.91260942178523E-07   1.53344459753801E-05
     -2.74470352768591E-18
      9.31263943481385E-01
     -9.31263943481385E-01  -9.31263943481385E-01   0.00000000000000E+00   0.00000000000000E+00  -1.51842468911761E-05
     -6.19396311052541E-07  -1.58036432022287E-05   2.61854499763190E-18   0.00000000000000E+00   0.00000000000000E+00
      0.00000000000000E+00   0.00000000000000E+00   1.51828523055951E-05   6.20790896633600E-07   1.58036432022287E-05
     -2.61854499763188E-18
      9.43773852855732E-01