DF-ISE text

Info {
  version   = 1.0
  type      = xyplot
  datasets  = [
    "time"
    "top OuterVoltage" "top InnerVoltage" "top QuasiFermiPotential" "top DisplacementCurrent" "top eCurrent"
    "top hCurrent" "top TotalCurrent" "top Charge" "bottom OuterVoltage" "bottom InnerVoltage"
    "bottom QuasiFermiPotential" "bottom DisplacementCurrent" "bottom eCurrent" "bottom hCurrent" "bottom TotalCurrent"
    "bottom Charge" ]
  functions = [
    Time
    OuterVoltage InnerVoltage QuasiFermiPotential DisplacementCurrent eCurrent
    hCurrent TotalCurrent Charge OuterVoltage InnerVoltage
    QuasiFermiPotential DisplacementCurrent eCurrent hCurrent TotalCurrent
    Charge ]
}

Data {
      0.00000000000000E+00
      0.00000000000000E+00   0.00000000000000E+00   0.00000000000000E+00   0.00000000000000E+00   1.32231402370192E-21
      2.24176838810735E-30   1.32231402594369E-21   4.43166378777234E-17   0.00000000000000E+00   0.00000000000000E+00
      0.00000000000000E+00   0.00000000000000E+00  -1.32231402376894E-21  -2.17474513560707E-30  -1.32231402594369E-21
     -4.43166378777234E-17
      0.00000000000000E+00
      0.00000000000000E+00   0.00000000000000E+00   0.00000000000000E+00   0.00000000000000E+00  -7.86264825025670E-21
      1.19776432075503E-31  -7.86264825013693E-21   4.43172575838475E-17   0.00000000000000E+00   0.00000000000000E+00
      0.00000000000000E+00   0.00000000000000E+00   7.86264825017547E-21  -3.85384055677981E-32   7.86264825013693E-21
     -4.43172575838475E-17
      1.00000000000000E-02
     -1.00000000000000E-02  -1.00000000000000E-02   0.00000000000000E+00   0.00000000000000E+00  -8.21942645826818E-15
     -3.52555599284569E-20  -8.21946171382810E-15   4.42184060886881E-17   0.00000000000000E+00   0.00000000000000E+00
      0.00000000000000E+00   0.00000000000000E+00   8.18390812005471E-15   3.55535937733929E-17   8.21946171382810E-15
     -4.42184060886881E-17
      1.94666666666667E-02
     -1.94666666666667E-02  -1.94666666666667E-02   0.00000000000000E+00   0.00000000000000E+00  -1.89811153166471E-14
     -8.34545484480552E-20  -1.89811987711956E-14   4.41259436458392E-17   0.00000000000000E+00   0.00000000000000E+00
      0.00000000000000E+00   0.00000000000000E+00   1.89050905769217E-14   7.61081942739182E-17   1.89811987711956E-14
     -4.41259436458391E-17
      2.84284444444444E-02
     -2.84284444444444E-02  -2.84284444444444E-02   0.00000000000000E+00   0.00000000000000E+00  -3.28902825173501E-14
     -1.48026535415295E-19  -3.28904305438856E-14   4.40394150854861E-17   0.00000000000000E+00   0.00000000000000E+00
      0.00000000000000E+00   0.00000000000000E+00   3.27682049273537E-14   1.22225616531869E-16   3.28904305438856E-14
     -4.40394150854861E-17
      4.53960770370370E-02
     -4.53960770370370E-02  -4.53960770370370E-02   0.00000000000000E+00   0.00000000000000E+00  -7.43430627514249E-14
     -3.49861516211285E-19  -7.43434126129411E-14   4.38782610522796E-17   0.00000000000000E+00   0.00000000000000E+00
      0.00000000000000E+00   0.00000000000000E+00   7.41066502359346E-14   2.36762377006551E-16   7.43434126129412E-14
     -4.38782610522795E-17
      6.05538288197531E-02
     -6.05538288197531E-02  -6.05538288197531E-02   0.00000000000000E+00   0.00000000000000E+00  -1.38546429751297E-13
     -6.78956570571492E-19  -1.38547108707868E-13   4.37372547844546E-17   0.00000000000000E+00   0.00000000000000E+00
      0.00000000000000E+00   0.00000000000000E+00   1.38166519407632E-13   3.80589300234936E-16   1.38547108707867E-13
     -4.37372547844546E-17
      7.44989604598518E-02
     -7.44989604598518E-02  -7.44989604598518E-02   0.00000000000000E+00   0.00000000000000E+00  -2.35977887271487E-13
     -1.20351885013613E-18  -2.35979090790337E-13   4.36099884490481E-17   0.00000000000000E+00   0.00000000000000E+00
      0.00000000000000E+00   0.00000000000000E+00   2.35417063754782E-13   5.62027035554533E-16   2.35979090790337E-13
     -4.36099884490481E-17
      8.73284815687427E-02
     -8.73284815687427E-02  -8.73284815687427E-02   0.00000000000000E+00   0.00000000000000E+00  -3.77982946844752E-13
     -2.00341257430929E-18  -3.77984950257326E-13   4.34949755774791E-17   0.00000000000000E+00   0.00000000000000E+00
      0.00000000000000E+00   0.00000000000000E+00   3.77198867160402E-13   7.86083096923771E-16   3.77984950257326E-13
     -4.34949755774791E-17
      9.91316409889223E-02
     -9.91316409889223E-02  -9.91316409889223E-02   0.00000000000000E+00   0.00000000000000E+00  -5.77275546101862E-13
     -3.17784819432503E-18  -5.77278723950056E-13   4.33909059707467E-17   0.00000000000000E+00   0.00000000000000E+00
      0.00000000000000E+00   0.00000000000000E+00   5.76221739574834E-13   1.05698437522476E-15   5.77278723950059E-13
     -4.33909059707467E-17
      1.10147923114423E-01
     -1.10147923114423E-01  -1.10147923114423E-01   0.00000000000000E+00   0.00000000000000E+00  -8.52041554895660E-13
     -4.87224835056909E-18  -8.52046427144011E-13   4.32952677158553E-17   0.00000000000000E+00   0.00000000000000E+00
      0.00000000000000E+00   0.00000000000000E+00   8.50663214552539E-13   1.38321259147180E-15   8.52046427144011E-13
     -4.32952677158552E-17
      1.20429786431557E-01
     -1.20429786431557E-01  -1.20429786431557E-01   0.00000000000000E+00   0.00000000000000E+00  -1.22064275600013E-12
     -7.30011157623046E-18  -1.22065005611171E-12   4.32072924445622E-17   0.00000000000000E+00   0.00000000000000E+00
      0.00000000000000E+00   0.00000000000000E+00   1.21888009419960E-12   1.76996191211182E-15   1.22065005611171E-12
     -4.32072924445623E-17
      1.30163283705111E-01
     -1.30163283705111E-01  -1.30163283705111E-01   0.00000000000000E+00   0.00000000000000E+00  -1.71075563306589E-12
     -1.06696453127722E-17  -1.71076630271120E-12   4.31251397636593E-17   0.00000000000000E+00   0.00000000000000E+00
      0.00000000000000E+00   0.00000000000000E+00   1.70853752998019E-12   2.22877273100576E-15   1.71076630271120E-12
     -4.31251397636593E-17
      1.48592038543040E-01
     -1.48592038543040E-01  -1.48592038543040E-01   0.00000000000000E+00   0.00000000000000E+00  -3.22193704133748E-12
     -2.14985263222571E-17  -3.22195853986381E-12   4.29725477018355E-17   0.00000000000000E+00   0.00000000000000E+00
      0.00000000000000E+00   0.00000000000000E+00   3.21852817846122E-12   3.43036140258890E-15   3.22195853986381E-12
     -4.29725477018355E-17
      1.62597892219865E-01
     -1.62597892219865E-01  -1.62597892219865E-01   0.00000000000000E+00   0.00000000000000E+00  -5.18795022234226E-12
     -3.69733705500007E-17  -5.18798719571281E-12   4.28590841281337E-17   0.00000000000000E+00   0.00000000000000E+00
      0.00000000000000E+00   0.00000000000000E+00   5.18323891918513E-12   4.74827652767702E-15   5.18798719571281E-12
     -4.28590841281337E-17
      1.75483277602545E-01
     -1.75483277602545E-01  -1.75483277602545E-01   0.00000000000000E+00   0.00000000000000E+00  -8.01455666732857E-12
     -6.07707252029028E-17  -8.01461743805378E-12   4.27565288699462E-17   0.00000000000000E+00   0.00000000000000E+00
      0.00000000000000E+00   0.00000000000000E+00   8.00822000250212E-12   6.39743555166460E-15   8.01461743805379E-12
     -4.27565288699461E-17
      1.87337832154610E-01
     -1.87337832154610E-01  -1.87337832154610E-01   0.00000000000000E+00   0.00000000000000E+00  -1.19240910311691E-11
     -9.60672536717858E-17  -1.19241870984228E-11   4.26636522947234E-17   0.00000000000000E+00   0.00000000000000E+00
      0.00000000000000E+00   0.00000000000000E+00   1.19157732196278E-11   8.41387879494252E-15   1.19241870984228E-11
     -4.26636522947234E-17
      1.98244022342510E-01
     -1.98244022342510E-01  -1.98244022342510E-01   0.00000000000000E+00   0.00000000000000E+00  -1.71438304526646E-11
     -1.46502242754799E-16  -1.71439769549074E-11   4.25793794972750E-17   0.00000000000000E+00   0.00000000000000E+00
      0.00000000000000E+00   0.00000000000000E+00   1.71331500990505E-11   1.08268558569129E-14   1.71439769549074E-11
     -4.25793794972750E-17
      2.08423133184550E-01
     -2.08423133184550E-01  -2.08423133184550E-01   0.00000000000000E+00   0.00000000000000E+00  -2.40065937439903E-11
     -2.22347095174828E-16  -2.40068160910854E-11   4.25016660936100E-17   0.00000000000000E+00   0.00000000000000E+00
      0.00000000000000E+00   0.00000000000000E+00   2.39931078559849E-11   1.37082351005509E-14   2.40068160910854E-11
     -4.25016660936101E-17
      2.18059358115014E-01
     -2.18059358115014E-01  -2.18059358115014E-01   0.00000000000000E+00   0.00000000000000E+00  -3.29515189876471E-11
     -3.19813905849437E-16  -3.29518388015530E-11   4.24288597150965E-17   0.00000000000000E+00   0.00000000000000E+00
      0.00000000000000E+00   0.00000000000000E+00   3.29347015354523E-11   1.71372661006763E-14   3.29518388015530E-11
     -4.24288597150966E-17
      2.36303943983360E-01
     -2.36303943983360E-01  -2.36303943983360E-01   0.00000000000000E+00   0.00000000000000E+00  -5.96756180621907E-11
     -6.38171918671198E-16  -5.96762562341094E-11   4.22927261292989E-17   0.00000000000000E+00   0.00000000000000E+00
      0.00000000000000E+00   0.00000000000000E+00   5.96500739124085E-11   2.61823217009527E-14   5.96762562341094E-11
     -4.22927261292989E-17
      2.51629396112771E-01
     -2.51629396112771E-01  -2.51629396112771E-01   0.00000000000000E+00   0.00000000000000E+00  -9.76565280216615E-11
     -1.15443385080694E-15  -9.76576824555123E-11   4.21796231594684E-17   0.00000000000000E+00   0.00000000000000E+00
      0.00000000000000E+00   0.00000000000000E+00   9.76202436578641E-11   3.74387976483247E-14   9.76576824555124E-11
     -4.21796231594684E-17
      2.65524472710103E-01
     -2.65524472710103E-01  -2.65524472710103E-01   0.00000000000000E+00   0.00000000000000E+00  -1.51784745932576E-10
     -1.97701512339499E-15  -1.51786722947699E-10   4.20774910818032E-17   0.00000000000000E+00   0.00000000000000E+00
      0.00000000000000E+00   0.00000000000000E+00   1.51734886507438E-10   5.18364402613427E-14   1.51786722947699E-10
     -4.20774910818032E-17
      2.78307943179649E-01
     -2.78307943179649E-01  -2.78307943179649E-01   0.00000000000000E+00   0.00000000000000E+00  -2.26559531117279E-10
     -3.24017010948166E-15  -2.26562771287388E-10   4.19832866798772E-17   0.00000000000000E+00   0.00000000000000E+00
      0.00000000000000E+00   0.00000000000000E+00   2.26492784730930E-10   6.99865564579493E-14   2.26562771287388E-10
     -4.19832866798772E-17
      2.90239182284559E-01
     -2.90239182284559E-01  -2.90239182284559E-01   0.00000000000000E+00   0.00000000000000E+00  -3.27629632018752E-10
     -5.13977557037389E-15  -3.27634771794322E-10   4.18945173780319E-17   0.00000000000000E+00   0.00000000000000E+00
      0.00000000000000E+00   0.00000000000000E+00   3.27542087945079E-10   9.26838492423864E-14   3.27634771794322E-10
     -4.18945173780319E-17
      3.01215922261075E-01
     -3.01215922261075E-01  -3.01215922261075E-01   0.00000000000000E+00   0.00000000000000E+00  -4.57867362268355E-10
     -7.86243962189819E-15  -4.57875224707977E-10   4.18114679985862E-17   0.00000000000000E+00   0.00000000000000E+00
      0.00000000000000E+00   0.00000000000000E+00   4.57755144346225E-10   1.20080361751809E-13   4.57875224707977E-10
     -4.18114679985862E-17
      3.11460879572491E-01
     -3.11460879572491E-01  -3.11460879572491E-01   0.00000000000000E+00   0.00000000000000E+00  -6.22995800608258E-10
     -1.16810365878809E-14  -6.23007481644846E-10   4.17320762818049E-17   0.00000000000000E+00   0.00000000000000E+00
      0.00000000000000E+00   0.00000000000000E+00   6.22854518522278E-10   1.52963122568319E-13   6.23007481644846E-10
     -4.17320762818049E-17
      3.30584799887133E-01
     -3.30584799887133E-01  -3.30584799887133E-01   0.00000000000000E+00   0.00000000000000E+00  -1.09301331273500E-09
     -2.44723426214322E-14  -1.09303778507762E-09   4.15761608739513E-17   0.00000000000000E+00   0.00000000000000E+00
      0.00000000000000E+00   0.00000000000000E+00   1.09279721007960E-09   2.40574998024800E-13   1.09303778507762E-09
     -4.15761608739513E-17
      3.45628950534652E-01
     -3.45628950534652E-01  -3.45628950534652E-01   0.00000000000000E+00   0.00000000000000E+00  -1.67909450558051E-09
     -4.37907793098023E-14  -1.67913829635982E-09   4.14425882186352E-17   0.00000000000000E+00   0.00000000000000E+00
      0.00000000000000E+00   0.00000000000000E+00   1.67879434446699E-09   3.43951892836481E-13   1.67913829635982E-09
     -4.14425882186352E-17
      3.59268980455069E-01
     -3.59268980455069E-01  -3.59268980455069E-01   0.00000000000000E+00   0.00000000000000E+00  -2.45078707472255E-09
     -7.42161306561999E-14  -2.45086129085321E-09   4.13089833406334E-17   0.00000000000000E+00   0.00000000000000E+00
      0.00000000000000E+00   0.00000000000000E+00   2.45038483890155E-09   4.76451951653751E-13   2.45086129085321E-09
     -4.13089833406334E-17
      3.71817807981852E-01
     -3.71817807981852E-01  -3.71817807981852E-01   0.00000000000000E+00   0.00000000000000E+00  -3.43764538670428E-09
     -1.20580751536556E-13  -3.43776596745582E-09   4.11715426583684E-17   0.00000000000000E+00   0.00000000000000E+00
      0.00000000000000E+00   0.00000000000000E+00   3.43712143271847E-09   6.44534737342698E-13   3.43776596745581E-09
     -4.11715426583684E-17
      3.83195411606136E-01
     -3.83195411606136E-01  -3.83195411606136E-01   0.00000000000000E+00   0.00000000000000E+00  -4.63455258155321E-09
     -1.87231049808746E-13  -4.63473981260302E-09   4.10310809456864E-17   0.00000000000000E+00   0.00000000000000E+00
      0.00000000000000E+00   0.00000000000000E+00   4.63388958780137E-09   8.50224801657261E-13   4.63473981260302E-09
     -4.10310809456864E-17
      3.93662806940477E-01
     -3.93662806940477E-01  -3.93662806940477E-01   0.00000000000000E+00   0.00000000000000E+00  -6.05939859029615E-09
     -2.80660922736479E-13  -6.05967925121889E-09   4.08849574303381E-17   0.00000000000000E+00   0.00000000000000E+00
      0.00000000000000E+00   0.00000000000000E+00   6.05857832255697E-09   1.10092866191032E-12   6.05967925121889E-09
     -4.08849574303381E-17
      4.03153245376946E-01
     -4.03153245376946E-01  -4.03153245376946E-01   0.00000000000000E+00   0.00000000000000E+00  -7.68384018742417E-09
     -4.05106690217379E-13  -7.68424529411439E-09   4.07352419823091E-17   0.00000000000000E+00   0.00000000000000E+00
      0.00000000000000E+00   0.00000000000000E+00   7.68284824212174E-09   1.39705199264643E-12   7.68424529411439E-09
     -4.07352419823090E-17
      4.20362573741744E-01
     -4.20362573741744E-01  -4.20362573741744E-01   0.00000000000000E+00   0.00000000000000E+00  -1.16680655364333E-08
     -7.88069977718016E-13  -1.16688536064110E-08   4.04106785914549E-17   0.00000000000000E+00   0.00000000000000E+00
      0.00000000000000E+00   0.00000000000000E+00   1.16666747762882E-08   2.17883012278295E-12   1.16688536064110E-08
     -4.04106785914549E-17
      4.35736240414296E-01
     -4.35736240414296E-01  -4.35736240414296E-01   0.00000000000000E+00   0.00000000000000E+00  -1.67238620258348E-08
     -1.42788079325355E-12  -1.67252899066281E-08   4.00458019633115E-17   0.00000000000000E+00   0.00000000000000E+00
      0.00000000000000E+00   0.00000000000000E+00   1.67219929654863E-08   3.29694114178762E-12   1.67252899066281E-08
     -4.00458019633115E-17
      4.49470049308443E-01
     -4.49470049308443E-01  -4.49470049308443E-01   0.00000000000000E+00   0.00000000000000E+00  -2.28485660311920E-08
     -2.42792916357871E-12  -2.28509939603556E-08   3.96415843017286E-17   0.00000000000000E+00   0.00000000000000E+00
      0.00000000000000E+00   0.00000000000000E+00   2.28461418598767E-08   4.85210047892022E-12   2.28509939603556E-08
     -3.96415843017286E-17
      4.61922036039136E-01
     -4.61922036039136E-01  -4.61922036039136E-01   0.00000000000000E+00   0.00000000000000E+00  -3.01098546462509E-08
     -3.92830167658863E-12  -3.01137829479275E-08   3.91946609982868E-17   0.00000000000000E+00   0.00000000000000E+00
      0.00000000000000E+00   0.00000000000000E+00   3.01067934355271E-08   6.98951240039661E-12   3.01137829479275E-08
     -3.91946609982868E-17
      4.72879784362146E-01
     -4.72879784362146E-01  -4.72879784362146E-01   0.00000000000000E+00   0.00000000000000E+00  -3.81987695145439E-08
     -5.99838676502994E-12  -3.82047679013089E-08   3.87242717421399E-17   0.00000000000000E+00   0.00000000000000E+00
      0.00000000000000E+00   0.00000000000000E+00   3.81950158460934E-08   9.75205521559830E-12   3.82047679013090E-08
     -3.87242717421399E-17
      4.92749834654538E-01
     -4.92749834654538E-01  -4.92749834654538E-01   0.00000000000000E+00   0.00000000000000E+00  -5.82146505987715E-08
     -1.29168384768013E-11  -5.82275674372483E-08   3.76421286227964E-17   0.00000000000000E+00   0.00000000000000E+00
      0.00000000000000E+00   0.00000000000000E+00   5.82092287160975E-08   1.83387211506988E-11   5.82275674372482E-08
     -3.76421286227964E-17
      5.08645874888451E-01
     -5.08645874888451E-01  -5.08645874888451E-01   0.00000000000000E+00   0.00000000000000E+00  -8.08976012309358E-08
     -2.38416952899352E-11  -8.09214429262258E-08   3.65126510645820E-17   0.00000000000000E+00   0.00000000000000E+00
      0.00000000000000E+00   0.00000000000000E+00   8.08903321158634E-08   3.11108103623520E-11   8.09214429262257E-08
     -3.65126510645820E-17
      5.22422443091176E-01
     -5.22422443091176E-01  -5.22422443091176E-01   0.00000000000000E+00   0.00000000000000E+00  -1.07072035241382E-07
     -4.05202307003321E-11  -1.07112555472082E-07   3.53027844275514E-17   0.00000000000000E+00   0.00000000000000E+00
      0.00000000000000E+00   0.00000000000000E+00   1.07062665644430E-07   4.98898276523212E-11   1.07112555472082E-07
     -3.53027844275514E-17
      5.34729510685610E-01
     -5.34729510685610E-01  -5.34729510685610E-01   0.00000000000000E+00   0.00000000000000E+00  -1.37081862682663E-07
     -6.50172363772505E-11  -1.37146879919040E-07   3.40143074281457E-17   0.00000000000000E+00   0.00000000000000E+00
      0.00000000000000E+00   0.00000000000000E+00   1.37070109453986E-07   7.67704650537822E-11   1.37146879919040E-07
     -3.40143074281457E-17
      5.45559730168712E-01
     -5.45559730168712E-01  -5.45559730168712E-01   0.00000000000000E+00   0.00000000000000E+00  -1.69971439970020E-07
     -9.84677725449056E-11  -1.70069907742564E-07   3.27037271350365E-17   0.00000000000000E+00   0.00000000000000E+00
      0.00000000000000E+00   0.00000000000000E+00   1.69957093765553E-07   1.12813977011383E-10   1.70069907742565E-07
     -3.27037271350365E-17
      5.55523532093166E-01
     -5.55523532093166E-01  -5.55523532093166E-01   0.00000000000000E+00   0.00000000000000E+00  -2.06771859384750E-07
     -1.44090563149829E-10  -2.06915949947899E-07   3.13454105472636E-17   0.00000000000000E+00   0.00000000000000E+00
      0.00000000000000E+00   0.00000000000000E+00   2.06754627853346E-07   1.61322094553034E-10   2.06915949947899E-07
     -3.13454105472636E-17
      5.64690229863663E-01
     -5.64690229863663E-01  -5.64690229863663E-01   0.00000000000000E+00   0.00000000000000E+00  -2.47241771316775E-07
     -2.04262161887091E-10  -2.47446033478662E-07   2.99662233665402E-17   0.00000000000000E+00   0.00000000000000E+00
      0.00000000000000E+00   0.00000000000000E+00   2.47221379849141E-07   2.24653629520576E-10   2.47446033478662E-07
     -2.99662233665401E-17
      5.81801399035259E-01
     -5.81801399035259E-01  -5.81801399035259E-01   0.00000000000000E+00   0.00000000000000E+00  -3.43732456136011E-07
     -3.89994224335527E-10  -3.44122450360347E-07   2.70797031928319E-17   0.00000000000000E+00   0.00000000000000E+00
      0.00000000000000E+00   0.00000000000000E+00   3.43704562214582E-07   4.17888145765620E-10   3.44122450360347E-07
     -2.70797031928319E-17
      5.95946632217111E-01
     -5.95946632217111E-01  -5.95946632217111E-01   0.00000000000000E+00   0.00000000000000E+00  -4.49254247689886E-07
     -6.61209742487626E-10  -4.49915457432374E-07   2.44385139413736E-17   0.00000000000000E+00   0.00000000000000E+00
      0.00000000000000E+00   0.00000000000000E+00   4.49218172339170E-07   6.97285093204025E-10   4.49915457432374E-07
     -2.44385139413736E-17
      6.08205834308049E-01
     -6.08205834308049E-01  -6.08205834308049E-01   0.00000000000000E+00   0.00000000000000E+00  -5.64189962582879E-07
     -1.03730771030152E-09  -5.65227270293180E-07   2.20288664173494E-17   0.00000000000000E+00   0.00000000000000E+00
      0.00000000000000E+00   0.00000000000000E+00   5.64144983060576E-07   1.08228723260457E-09   5.65227270293180E-07
     -2.20288664173494E-17
      6.18830476120196E-01
     -6.18830476120196E-01  -6.18830476120196E-01   0.00000000000000E+00   0.00000000000000E+00  -6.84585407244368E-07
     -1.52103271294406E-09  -6.86106439957312E-07   1.99062622985567E-17   0.00000000000000E+00   0.00000000000000E+00
      0.00000000000000E+00   0.00000000000000E+00   6.84531098555770E-07   1.57534140153963E-09   6.86106439957310E-07
     -1.99062622985567E-17
      6.28746808478200E-01
     -6.28746808478200E-01  -6.28746808478200E-01   0.00000000000000E+00   0.00000000000000E+00  -8.16582486554003E-07
     -2.15619136614155E-09  -8.18738677920144E-07   1.79438595480022E-17   0.00000000000000E+00   0.00000000000000E+00
      0.00000000000000E+00   0.00000000000000E+00   8.16517942763132E-07   2.22073515701100E-09   8.18738677920143E-07
     -1.79438595480022E-17
      6.47257295546473E-01
     -6.47257295546473E-01  -6.47257295546473E-01   0.00000000000000E+00   0.00000000000000E+00  -1.11861640007374E-06
     -4.01684567565683E-09  -1.12263324574939E-06   1.44758038372367E-17   0.00000000000000E+00   0.00000000000000E+00
      0.00000000000000E+00   0.00000000000000E+00   1.11852840702171E-06   4.10483872768772E-09   1.12263324574939E-06
     -1.44758038372367E-17
      6.54784893620905E-01
     -6.54784893620905E-01  -6.54784893620905E-01   0.00000000000000E+00   0.00000000000000E+00  -1.26270252237289E-06
     -5.10118483371027E-09  -1.26780370720660E-06   1.31833394067215E-17   0.00000000000000E+00   0.00000000000000E+00
      0.00000000000000E+00   0.00000000000000E+00   1.26260333258025E-06   5.20037462634907E-09   1.26780370720660E-06
     -1.31833394067215E-17
      6.61911019798033E-01
     -6.61911019798033E-01  -6.61911019798033E-01   0.00000000000000E+00   0.00000000000000E+00  -1.40990077159906E-06
     -6.33787709404033E-09  -1.41623864869310E-06   1.20403617754458E-17   0.00000000000000E+00   0.00000000000000E+00
      0.00000000000000E+00   0.00000000000000E+00   1.40979014106141E-06   6.44850763168489E-09   1.41623864869310E-06
     -1.20403617754458E-17
      6.68657085912381E-01
     -6.68657085912381E-01  -6.68657085912381E-01   0.00000000000000E+00   0.00000000000000E+00  -1.55808205596279E-06
     -7.71255996797669E-09  -1.56579461593077E-06   1.10375824553005E-17   0.00000000000000E+00   0.00000000000000E+00
      0.00000000000000E+00   0.00000000000000E+00   1.55795991041029E-06   7.83470552048375E-09   1.56579461593077E-06
     -1.10375824553005E-17
      6.75043361833964E-01
     -6.75043361833964E-01  -6.75043361833964E-01   0.00000000000000E+00   0.00000000000000E+00  -1.70521648532422E-06
     -9.20429842988259E-09  -1.71442078375410E-06   1.01631091532933E-17   0.00000000000000E+00   0.00000000000000E+00
      0.00000000000000E+00   0.00000000000000E+00   1.70508291314608E-06   9.33787060802875E-09   1.71442078375411E-06
     -1.01631091532933E-17
      6.87134710912160E-01
     -6.87134710912160E-01  -6.87134710912160E-01   0.00000000000000E+00   0.00000000000000E+00  -1.99729716914160E-06
     -1.25312118664532E-08  -2.00982838100805E-06   8.71099349435340E-18   0.00000000000000E+00   0.00000000000000E+00
      0.00000000000000E+00   0.00000000000000E+00   1.99714095684987E-06   1.26874241581854E-08   2.00982838100805E-06
     -8.71099349435339E-18
      6.98258752064101E-01
     -6.98258752064101E-01  -6.98258752064101E-01   0.00000000000000E+00   0.00000000000000E+00  -2.27376645302554E-06
     -1.61138348149193E-08  -2.28988028784046E-06   7.60437464050003E-18   0.00000000000000E+00   0.00000000000000E+00
      0.00000000000000E+00   0.00000000000000E+00   2.27358890399024E-06   1.62913838502231E-08   2.28988028784046E-06
     -7.60437464049990E-18
      7.08641190472580E-01
     -7.08641190472580E-01  -7.08641190472580E-01   0.00000000000000E+00   0.00000000000000E+00  -2.53019497715943E-06
     -1.97969163540664E-08  -2.54999189351349E-06   6.75388219201116E-18   0.00000000000000E+00   0.00000000000000E+00
      0.00000000000000E+00   0.00000000000000E+00   2.52999776992597E-06   1.99941235875256E-08   2.54999189351349E-06
     -6.75388219201125E-18
      7.18331466320493E-01
     -7.18331466320493E-01  -7.18331466320493E-01   0.00000000000000E+00   0.00000000000000E+00  -2.76185757581120E-06
     -2.34069358240158E-08  -2.78526451163521E-06   6.10022280706235E-18   0.00000000000000E+00   0.00000000000000E+00
      0.00000000000000E+00   0.00000000000000E+00   2.76164276899756E-06   2.36217426376520E-08   2.78526451163521E-06
     -6.10022280706242E-18
      7.27375723778545E-01
     -7.27375723778545E-01  -7.27375723778545E-01   0.00000000000000E+00   0.00000000000000E+00  -2.96733374899935E-06
     -2.68200056113224E-08  -2.99415375461068E-06   5.59501615304246E-18   0.00000000000000E+00   0.00000000000000E+00
      0.00000000000000E+00   0.00000000000000E+00   2.96710350688756E-06   2.70502477231094E-08   2.99415375461067E-06
     -5.59501615304243E-18
      7.35817030739394E-01
     -7.35817030739394E-01  -7.35817030739394E-01   0.00000000000000E+00   0.00000000000000E+00  -3.14752809128942E-06
     -2.99652536972773E-08  -3.17749334498670E-06   5.20080233861626E-18   0.00000000000000E+00   0.00000000000000E+00
      0.00000000000000E+00   0.00000000000000E+00   3.14728449049460E-06   3.02088544920990E-08   3.17749334498669E-06
     -5.20080233861621E-18
      7.43808134662330E-01
     -7.43808134662330E-01  -7.43808134662330E-01   0.00000000000000E+00   0.00000000000000E+00  -3.30682950556832E-06
     -3.28549195171775E-08  -3.33968442508550E-06   4.88538210869443E-18   0.00000000000000E+00   0.00000000000000E+00
      0.00000000000000E+00   0.00000000000000E+00   3.30657426922225E-06   3.31101558632481E-08   3.33968442508550E-06
     -4.88538210869440E-18
      7.51373046376044E-01
     -7.51373046376044E-01  -7.51373046376044E-01   0.00000000000000E+00   0.00000000000000E+00  -3.44732150758847E-06
     -3.54808124444439E-08  -3.48280232003292E-06   4.63015990341091E-18   0.00000000000000E+00   0.00000000000000E+00
      0.00000000000000E+00   0.00000000000000E+00   3.44705617517589E-06   3.57461448570238E-08   3.48280232003292E-06
     -4.63015990341089E-18
      7.58534496131693E-01
     -7.58534496131693E-01  -7.58534496131693E-01   0.00000000000000E+00   0.00000000000000E+00  -3.57130313333082E-06
     -3.78523927340837E-08  -3.60915552606490E-06   4.42114522890665E-18   0.00000000000000E+00   0.00000000000000E+00
      0.00000000000000E+00   0.00000000000000E+00   3.57102904418985E-06   3.81264818750572E-08   3.60915552606490E-06
     -4.42114522890666E-18
      7.65314001900374E-01
     -7.65314001900374E-01  -7.65314001900374E-01   0.00000000000000E+00   0.00000000000000E+00  -3.68101120370695E-06
     -3.99887197460155E-08  -3.72099992345297E-06   4.24786718381675E-18   0.00000000000000E+00   0.00000000000000E+00
      0.00000000000000E+00   0.00000000000000E+00   3.68072950396257E-06   4.02704194904000E-08   3.72099992345297E-06
     -4.24786718381675E-18
      7.78149866155743E-01
     -7.78149866155743E-01  -7.78149866155743E-01   0.00000000000000E+00   0.00000000000000E+00  -3.87022947321339E-06
     -4.37437979601775E-08  -3.91397327117357E-06   3.97255565354507E-18   0.00000000000000E+00   0.00000000000000E+00
      0.00000000000000E+00   0.00000000000000E+00   3.86993500148301E-06   4.40382696905684E-08   3.91397327117358E-06
     -3.97255565354501E-18
      7.89787716413944E-01
     -7.89787716413944E-01  -7.89787716413944E-01   0.00000000000000E+00   0.00000000000000E+00  -4.02369032978964E-06
     -4.68410468033518E-08  -4.07053137659299E-06   3.76920796282051E-18   0.00000000000000E+00   0.00000000000000E+00
      0.00000000000000E+00   0.00000000000000E+00   4.02338587985449E-06   4.71454967384945E-08   4.07053137659299E-06
     -3.76920796282052E-18
      8.00649709988265E-01
     -8.00649709988265E-01  -8.00649709988265E-01   0.00000000000000E+00   0.00000000000000E+00  -4.15408380145832E-06
     -4.94988970192928E-08  -4.20358269847761E-06   3.60914983885257E-18   0.00000000000000E+00   0.00000000000000E+00
      0.00000000000000E+00   0.00000000000000E+00   4.15377117586261E-06   4.98115226150088E-08   4.20358269847762E-06
     -3.60914983885260E-18
      8.10787570657632E-01
     -8.10787570657632E-01  -8.10787570657632E-01   0.00000000000000E+00   0.00000000000000E+00  -4.26653037493625E-06
     -5.18041538344438E-08  -4.31833452877069E-06   3.47975894939795E-18   0.00000000000000E+00   0.00000000000000E+00
      0.00000000000000E+00   0.00000000000000E+00   4.26621094032545E-06   5.21235884452448E-08   4.31833452877069E-06
     -3.47975894939802E-18
      8.20249573949040E-01
     -8.20249573949040E-01  -8.20249573949040E-01   0.00000000000000E+00   0.00000000000000E+00  -4.36474366992880E-06
     -5.38240314220730E-08  -4.41856770135087E-06   3.37282682434111E-18   0.00000000000000E+00   0.00000000000000E+00
      0.00000000000000E+00   0.00000000000000E+00   4.36441847984777E-06   5.41492215031015E-08   4.41856770135087E-06
     -3.37282682434115E-18
      8.29080777021022E-01