DF-ISE text

Info {
  version   = 1.0
  type      = xyplot
  datasets  = [
    "time"
    "top OuterVoltage" "top InnerVoltage" "top QuasiFermiPotential" "top DisplacementCurrent" "top eCurrent"
    "top hCurrent" "top TotalCurrent" "top Charge" "bottom OuterVoltage" "bottom InnerVoltage"
    "bottom QuasiFermiPotential" "bottom DisplacementCurrent" "bottom eCurrent" "bottom hCurrent" "bottom TotalCurrent"
    "bottom Charge" ]
  functions = [
    Time
    OuterVoltage InnerVoltage QuasiFermiPotential DisplacementCurrent eCurrent
    hCurrent TotalCurrent Charge OuterVoltage InnerVoltage
    QuasiFermiPotential DisplacementCurrent eCurrent hCurrent TotalCurrent
    Charge ]
}

Data {
      0.00000000000000E+00
      0.00000000000000E+00   0.00000000000000E+00   0.00000000000000E+00   0.00000000000000E+00  -3.23581994159321E-21
      1.94355192230407E-30  -3.23581993964966E-21   7.54363792752500E-17   0.00000000000000E+00   0.00000000000000E+00
      0.00000000000000E+00   0.00000000000000E+00   3.23581994159663E-21  -1.94696415765703E-30   3.23581993964967E-21
     -7.54363792752500E-17
      0.00000000000000E+00
      0.00000000000000E+00   0.00000000000000E+00   0.00000000000000E+00   0.00000000000000E+00  -1.04392538507170E-20
     -3.10402177581222E-31  -1.04392538510274E-20   7.54363792837358E-17   0.00000000000000E+00   0.00000000000000E+00
      0.00000000000000E+00   0.00000000000000E+00   1.04392538509996E-20   2.78176883985495E-32   1.04392538510274E-20
     -7.54363792837358E-17
      1.00000000000000E-02
     -1.00000000000000E-02  -1.00000000000000E-02   0.00000000000000E+00   0.00000000000000E+00  -1.58411331356494E-16
     -3.52903504406041E-20  -1.58446621706934E-16   7.50828622200462E-17   0.00000000000000E+00   0.00000000000000E+00
      0.00000000000000E+00   0.00000000000000E+00   1.46608752901187E-16   1.18378688057471E-17   1.58446621706934E-16
     -7.50828622200462E-17
      2.89333333333333E-02
     -2.89333333333333E-02  -2.89333333333333E-02   0.00000000000000E+00   0.00000000000000E+00  -6.67707717251997E-16
     -1.52503920958953E-19  -6.67860221172956E-16   7.44104610091356E-17   0.00000000000000E+00   0.00000000000000E+00
      0.00000000000000E+00   0.00000000000000E+00   6.26987707531866E-16   4.08725136410881E-17   6.67860221172954E-16
     -7.44104610091356E-17
      4.50897777777778E-02
     -4.50897777777778E-02  -4.50897777777778E-02   0.00000000000000E+00   0.00000000000000E+00  -1.48547795215753E-15
      1.82400989850508E-18  -1.48365394225903E-15   7.38334526756839E-17   0.00000000000000E+00   0.00000000000000E+00
      0.00000000000000E+00   0.00000000000000E+00   1.41049320384158E-15   7.31607384174469E-17   1.48365394225903E-15
     -7.38334526756841E-17
      6.01691259259259E-02
     -6.01691259259259E-02  -6.01691259259259E-02   0.00000000000000E+00   0.00000000000000E+00  -2.83983024336377E-15
     -6.69056547815917E-19  -2.84049929991159E-15   7.32921912077286E-17   0.00000000000000E+00   0.00000000000000E+00
      0.00000000000000E+00   0.00000000000000E+00   2.72135150668427E-15   1.19147793227320E-16   2.84049929991159E-15
     -7.32921912077286E-17
      7.42431841975309E-02
     -7.42431841975309E-02  -7.42431841975309E-02   0.00000000000000E+00   0.00000000000000E+00  -5.00853146091889E-15
     -1.19297887673484E-18  -5.00972443979562E-15   7.27846121767233E-17   0.00000000000000E+00   0.00000000000000E+00
      0.00000000000000E+00   0.00000000000000E+00   4.83552321072384E-15   1.74201229071788E-16   5.00972443979563E-15
     -7.27846121767233E-17
      8.73789719176955E-02
     -8.73789719176955E-02  -8.73789719176955E-02   0.00000000000000E+00   0.00000000000000E+00  -8.36682761745995E-15
     -2.00688899367265E-18  -8.36883450645362E-15   7.23087533843268E-17   0.00000000000000E+00   0.00000000000000E+00
      0.00000000000000E+00   0.00000000000000E+00   8.12646217348567E-15   2.42372332967944E-16   8.36883450645361E-15
     -7.23087533843269E-17
      9.96390404565158E-02
     -9.96390404565158E-02  -9.96390404565158E-02   0.00000000000000E+00   0.00000000000000E+00  -1.34019881856308E-14
     -3.24425000067916E-18  -1.34052324356315E-14   7.18627515859688E-17   0.00000000000000E+00   0.00000000000000E+00
      0.00000000000000E+00   0.00000000000000E+00   1.30797111385244E-14   3.25521297107092E-16   1.34052324356315E-14
     -7.18627515859690E-17
      1.11081771092748E-01
     -1.11081771092748E-01  -1.11081771092748E-01   0.00000000000000E+00   0.00000000000000E+00  -2.07232862616038E-14
     -5.07050727335869E-18  -2.07283567688772E-14   7.14448391646831E-17   0.00000000000000E+00   0.00000000000000E+00
      0.00000000000000E+00   0.00000000000000E+00   2.03029352244743E-14   4.25421544402869E-16   2.07283567688772E-14
     -7.14448391646831E-17
      1.32746674430681E-01
     -1.32746674430681E-01  -1.32746674430681E-01   0.00000000000000E+00   0.00000000000000E+00  -4.70539156804484E-14
     -1.16717075566476E-17  -4.70655873880050E-14   7.06491849246466E-17   0.00000000000000E+00   0.00000000000000E+00
      0.00000000000000E+00   0.00000000000000E+00   4.63680043569479E-14   6.97583031057091E-16   4.70655873880050E-14
     -7.06491849246465E-17
      1.50945193234545E-01
     -1.50945193234545E-01  -1.50945193234545E-01   0.00000000000000E+00   0.00000000000000E+00  -9.34846090712597E-14
     -2.35980634468481E-17  -9.35082071347065E-14   6.99763096885206E-17   0.00000000000000E+00   0.00000000000000E+00
      0.00000000000000E+00   0.00000000000000E+00   9.24577215305058E-14   1.05048560420070E-15   9.35082071347065E-14
     -6.99763096885206E-17
      1.67687830534100E-01
     -1.67687830534100E-01  -1.67687830534100E-01   0.00000000000000E+00   0.00000000000000E+00  -1.75689093630726E-13
     -4.49959885334502E-17  -1.75734089619260E-13   6.93535522674067E-17   0.00000000000000E+00   0.00000000000000E+00
      0.00000000000000E+00   0.00000000000000E+00   1.74204892324980E-13   1.52919729427951E-15   1.75734089619260E-13
     -6.93535522674067E-17
      1.83091056849690E-01
     -1.83091056849690E-01  -1.83091056849690E-01   0.00000000000000E+00   0.00000000000000E+00  -3.13867242671287E-13
     -8.21467320705516E-17  -3.13949389403357E-13   6.87774246418816E-17   0.00000000000000E+00   0.00000000000000E+00
      0.00000000000000E+00   0.00000000000000E+00   3.11785865336957E-13   2.16352406639940E-15   3.13949389403357E-13
     -6.87774246418816E-17
      1.97467401410908E-01
     -1.97467401410908E-01  -1.97467401410908E-01   0.00000000000000E+00   0.00000000000000E+00  -5.39415120564015E-13
     -1.42844939020877E-16  -5.39557965503035E-13   6.82369061650854E-17   0.00000000000000E+00   0.00000000000000E+00
      0.00000000000000E+00   0.00000000000000E+00   5.36560088422461E-13   2.99787708057473E-15   5.39557965503035E-13
     -6.82369061650853E-17
      2.10885323001378E-01
     -2.10885323001378E-01  -2.10885323001378E-01   0.00000000000000E+00   0.00000000000000E+00  -8.94147647620722E-13
     -2.39890987753780E-16  -8.94387538608475E-13   6.77299493751190E-17   0.00000000000000E+00   0.00000000000000E+00
      0.00000000000000E+00   0.00000000000000E+00   8.90308741081395E-13   4.07879752707999E-15   8.94387538608475E-13
     -6.77299493751190E-17
      2.23408716485816E-01
     -2.23408716485816E-01  -2.23408716485816E-01   0.00000000000000E+00   0.00000000000000E+00  -1.43300188301669E-12
     -3.87065843129132E-16  -1.43338894885982E-12   6.72546059648305E-17   0.00000000000000E+00   0.00000000000000E+00
      0.00000000000000E+00   0.00000000000000E+00   1.42793327986828E-12   5.45566899153221E-15   1.43338894885982E-12
     -6.72546059648304E-17
      2.34930238491499E-01
     -2.34930238491499E-01  -2.34930238491499E-01   0.00000000000000E+00   0.00000000000000E+00  -2.21143509058353E-12
     -6.05940007044706E-16  -2.21204103059057E-12   6.68154026182386E-17   0.00000000000000E+00   0.00000000000000E+00
      0.00000000000000E+00   0.00000000000000E+00   2.20487893997110E-12   7.16209061947386E-15   2.21204103059057E-12
     -6.68154026182385E-17
      2.56437079568775E-01
     -2.56437079568775E-01  -2.56437079568775E-01   0.00000000000000E+00   0.00000000000000E+00  -4.96942555688959E-12
     -1.39140940954545E-15  -4.97081696629914E-12   6.59906281815445E-17   0.00000000000000E+00   0.00000000000000E+00
      0.00000000000000E+00   0.00000000000000E+00   4.95876742617894E-12   1.20495401201938E-14   4.97081696629914E-12
     -6.59906281815446E-17
      2.74502826073687E-01
     -2.74502826073687E-01  -2.74502826073687E-01   0.00000000000000E+00   0.00000000000000E+00  -9.80665710141647E-12
     -2.79849451800150E-15  -9.80945559593447E-12   6.52927369626087E-17   0.00000000000000E+00   0.00000000000000E+00
      0.00000000000000E+00   0.00000000000000E+00   9.79051438581351E-12   1.89412101209778E-14   9.80945559593449E-12
     -6.52927369626087E-17
      2.90882436238140E-01
     -2.90882436238140E-01  -2.90882436238140E-01   0.00000000000000E+00   0.00000000000000E+00  -1.81550919469510E-11
     -5.27380041477027E-15  -1.81603657473657E-11   6.46558350001297E-17   0.00000000000000E+00   0.00000000000000E+00
      0.00000000000000E+00   0.00000000000000E+00   1.81314129251306E-11   2.89528222351197E-14   1.81603657473657E-11
     -6.46558350001297E-17
      3.05951677589437E-01
     -3.05951677589437E-01  -3.05951677589437E-01   0.00000000000000E+00   0.00000000000000E+00  -3.19788989254018E-11
     -9.44524392055656E-15  -3.19883441693224E-11   6.40662524207020E-17   0.00000000000000E+00   0.00000000000000E+00
      0.00000000000000E+00   0.00000000000000E+00   3.19449920524525E-11   4.33521168699394E-14   3.19883441693225E-11
     -6.40662524207019E-17
      3.19614456414613E-01
     -3.19614456414613E-01  -3.19614456414613E-01   0.00000000000000E+00   0.00000000000000E+00  -5.34001759430672E-11
     -1.60221934487218E-14  -5.34161981365159E-11   6.35285182347542E-17   0.00000000000000E+00   0.00000000000000E+00
      0.00000000000000E+00   0.00000000000000E+00   5.33529361998740E-11   6.32619366419621E-14   5.34161981365159E-11
     -6.35285182347543E-17
      3.32184212933774E-01
     -3.32184212933774E-01  -3.32184212933774E-01   0.00000000000000E+00   0.00000000000000E+00  -8.55347508869064E-11
     -2.60545189035655E-14  -8.55608054058100E-11   6.30309317733255E-17   0.00000000000000E+00   0.00000000000000E+00
      0.00000000000000E+00   0.00000000000000E+00   8.54702994701609E-11   9.05059356491194E-14   8.55608054058100E-11
     -6.30309317733254E-17
      3.43915985684992E-01
     -3.43915985684992E-01  -3.43915985684992E-01   0.00000000000000E+00   0.00000000000000E+00  -1.32679070985418E-10
     -4.10153291652583E-14  -1.32720086314583E-10   6.25637921142803E-17   0.00000000000000E+00   0.00000000000000E+00
      0.00000000000000E+00   0.00000000000000E+00   1.32592496171193E-10   1.27590143390394E-13   1.32720086314584E-10
     -6.25637921142803E-17
      3.54709216616112E-01
     -3.54709216616112E-01  -3.54709216616112E-01   0.00000000000000E+00   0.00000000000000E+00  -1.98553156845457E-10
     -6.22667459777828E-14  -1.98615423591435E-10   6.21314114569777E-17   0.00000000000000E+00   0.00000000000000E+00
      0.00000000000000E+00   0.00000000000000E+00   1.98439061638344E-10   1.76361953090754E-13   1.98615423591435E-10
     -6.21314114569776E-17
      3.74568761529374E-01
     -3.74568761529374E-01  -3.74568761529374E-01   0.00000000000000E+00   0.00000000000000E+00  -4.15759548238773E-10
     -1.34231686841817E-13  -4.15893779925615E-10   6.13278801058996E-17   0.00000000000000E+00   0.00000000000000E+00
      0.00000000000000E+00   0.00000000000000E+00   4.15567773781766E-10   3.26006143849152E-13   4.15893779925615E-10
     -6.13278801058996E-17
      3.92309954985220E-01
     -3.92309954985220E-01  -3.92309954985220E-01   0.00000000000000E+00   0.00000000000000E+00  -8.01015573079099E-10
     -2.66604912809199E-13  -8.01282177991909E-10   6.05983398863364E-17   0.00000000000000E+00   0.00000000000000E+00
      0.00000000000000E+00   0.00000000000000E+00   8.00707021884335E-10   5.75156107575864E-13   8.01282177991911E-10
     -6.05983398863364E-17
      4.08158754472443E-01
     -4.08158754472443E-01  -4.08158754472443E-01   0.00000000000000E+00   0.00000000000000E+00  -1.43105640104643E-09
     -4.92137592945522E-13  -1.43154853863937E-09   5.99326548792732E-17   0.00000000000000E+00   0.00000000000000E+00
      0.00000000000000E+00   0.00000000000000E+00   1.43058101787805E-09   9.67520761329969E-13   1.43154853863938E-09
     -5.99326548792733E-17
      4.22739650000689E-01
     -4.22739650000689E-01  -4.22739650000689E-01   0.00000000000000E+00   0.00000000000000E+00  -2.42396688445593E-09
     -8.64964879752515E-13  -2.42483184933568E-09   5.93025709971928E-17   0.00000000000000E+00   0.00000000000000E+00
      0.00000000000000E+00   0.00000000000000E+00   2.42325690223864E-09   1.57494709704483E-12   2.42483184933568E-09
     -5.93025709971928E-17
      4.35959661946298E-01
     -4.35959661946298E-01  -4.35959661946298E-01   0.00000000000000E+00   0.00000000000000E+00  -3.87761899417349E-09
     -1.44225038102831E-12  -3.87906124455452E-09   5.87094498329835E-17   0.00000000000000E+00   0.00000000000000E+00
      0.00000000000000E+00   0.00000000000000E+00   3.87659774928009E-09   2.46349527443173E-12   3.87906124455452E-09
     -5.87094498329835E-17
      4.47945806110317E-01
     -4.47945806110317E-01  -4.47945806110317E-01   0.00000000000000E+00   0.00000000000000E+00  -5.88567734320759E-09
     -2.29268909970718E-12  -5.88797003230729E-09   5.81457329319735E-17   0.00000000000000E+00   0.00000000000000E+00
      0.00000000000000E+00   0.00000000000000E+00   5.88426160107901E-09   3.70843122828584E-12   5.88797003230729E-09
     -5.81457329319734E-17
      4.58813243485694E-01
     -4.58813243485694E-01  -4.58813243485694E-01   0.00000000000000E+00   0.00000000000000E+00  -8.51689485319722E-09
     -3.49016005263184E-12  -8.52038501324985E-09   5.76050964409579E-17   0.00000000000000E+00   0.00000000000000E+00
      0.00000000000000E+00   0.00000000000000E+00   8.51500024654419E-09   5.38476670565429E-12   8.52038501324984E-09
     -5.76050964409579E-17
      4.68666386706036E-01
     -4.68666386706036E-01  -4.68666386706036E-01   0.00000000000000E+00   0.00000000000000E+00  -1.18060977506248E-08
     -5.10851289837640E-12  -1.18112062635232E-08   5.70827538944643E-17   0.00000000000000E+00   0.00000000000000E+00
      0.00000000000000E+00   0.00000000000000E+00   1.18036441312966E-08   7.56213222655088E-12   1.18112062635232E-08
     -5.70827538944643E-17
      4.86796170231465E-01
     -4.86796170231465E-01  -4.86796170231465E-01   0.00000000000000E+00   0.00000000000000E+00  -2.10210549592963E-08
     -1.02957581818222E-11  -2.10313507174781E-08   5.60119603714966E-17   0.00000000000000E+00   0.00000000000000E+00
      0.00000000000000E+00   0.00000000000000E+00   2.10171761992522E-08   1.41745182259278E-11   2.10313507174781E-08
     -5.60119603714964E-17
      4.94894140206156E-01
     -4.94894140206156E-01  -4.94894140206156E-01   0.00000000000000E+00   0.00000000000000E+00  -2.69087737355773E-08
     -1.40789948390887E-11  -2.69228527304164E-08   5.54737265973351E-17   0.00000000000000E+00   0.00000000000000E+00
      0.00000000000000E+00   0.00000000000000E+00   2.69040540633500E-08   1.87986670664013E-11   2.69228527304164E-08
     -5.54737265973351E-17
      5.09794404959589E-01
     -5.09794404959589E-01  -5.09794404959589E-01   0.00000000000000E+00   0.00000000000000E+00  -4.16400701601049E-08
     -2.50362695167465E-11  -4.16651064296216E-08   5.43558471239722E-17   0.00000000000000E+00   0.00000000000000E+00
      0.00000000000000E+00   0.00000000000000E+00   4.16333904054378E-08   3.17160241837439E-11   4.16651064296215E-08
     -5.43558471239722E-17
      5.22310627352472E-01
     -5.22310627352472E-01  -5.22310627352472E-01   0.00000000000000E+00   0.00000000000000E+00  -5.90580021196415E-08
     -4.05934020721715E-11  -5.90985955217137E-08   5.32580487124180E-17   0.00000000000000E+00   0.00000000000000E+00
      0.00000000000000E+00   0.00000000000000E+00   5.90491742567650E-08   4.94212649486436E-11   5.90985955217137E-08
     -5.32580487124181E-17
      5.33658668988687E-01
     -5.33658668988687E-01  -5.33658668988687E-01   0.00000000000000E+00   0.00000000000000E+00  -8.00420653273655E-08
     -6.28967733897205E-11  -8.01049621007552E-08   5.21077187546496E-17   0.00000000000000E+00   0.00000000000000E+00
      0.00000000000000E+00   0.00000000000000E+00   8.00308004593220E-08   7.41616414331838E-11   8.01049621007552E-08
     -5.21077187546495E-17
      5.43947560072188E-01
     -5.43947560072188E-01  -5.43947560072188E-01   0.00000000000000E+00   0.00000000000000E+00  -1.04427733998868E-07
     -9.35224169111085E-11  -1.04521256415779E-07   5.09142900299905E-17   0.00000000000000E+00   0.00000000000000E+00
      0.00000000000000E+00   0.00000000000000E+00   1.04413772183409E-07   1.07484232369935E-10   1.04521256415779E-07
     -5.09142900299904E-17
      5.53550525083455E-01
     -5.53550525083455E-01  -5.53550525083455E-01   0.00000000000000E+00   0.00000000000000E+00  -1.32831197371020E-07
     -1.35383154280126E-10  -1.32966580525300E-07   4.96529706303015E-17   0.00000000000000E+00   0.00000000000000E+00
      0.00000000000000E+00   0.00000000000000E+00   1.32814217742564E-07   1.52362782735607E-10   1.32966580525300E-07
     -4.96529706303015E-17
      5.70451743503286E-01
     -5.70451743503286E-01  -5.70451743503286E-01   0.00000000000000E+00   0.00000000000000E+00  -1.99649382235334E-07
     -2.59306487446650E-10  -1.99908688722781E-07   4.70400263616968E-17   0.00000000000000E+00   0.00000000000000E+00
      0.00000000000000E+00   0.00000000000000E+00   1.99625628717471E-07   2.83060005309111E-10   1.99908688722781E-07
     -4.70400263616969E-17
      5.85099466133806E-01
     -5.85099466133806E-01  -5.85099466133806E-01   0.00000000000000E+00   0.00000000000000E+00  -2.80157392753651E-07
     -4.54675850744304E-10  -2.80612068604395E-07   4.43271452279677E-17   0.00000000000000E+00   0.00000000000000E+00
      0.00000000000000E+00   0.00000000000000E+00   2.80125832073865E-07   4.86236530529787E-10   2.80612068604394E-07
     -4.43271452279677E-17
      5.97403553143443E-01
     -5.97403553143443E-01  -5.97403553143443E-01   0.00000000000000E+00   0.00000000000000E+00  -3.69077394447298E-07
     -7.27464324609200E-10  -3.69804858771907E-07   4.17102019275132E-17   0.00000000000000E+00   0.00000000000000E+00
      0.00000000000000E+00   0.00000000000000E+00   3.69037465307846E-07   7.67393464061533E-10   3.69804858771907E-07
     -4.17102019275133E-17
      6.08723313192309E-01
     -6.08723313192309E-01  -6.08723313192309E-01   0.00000000000000E+00   0.00000000000000E+00  -4.72568838738622E-07
     -1.11879212064925E-09  -4.73687630859272E-07   3.90358369024560E-17   0.00000000000000E+00   0.00000000000000E+00
      0.00000000000000E+00   0.00000000000000E+00   4.72519371364634E-07   1.16825949463676E-09   4.73687630859271E-07
     -3.90358369024560E-17
      6.18835632169296E-01
     -6.18835632169296E-01  -6.18835632169296E-01   0.00000000000000E+00   0.00000000000000E+00  -5.86514655926538E-07
     -1.63998088624417E-09  -5.88154636812783E-07   3.64487967542878E-17   0.00000000000000E+00   0.00000000000000E+00
      0.00000000000000E+00   0.00000000000000E+00   5.86454844221641E-07   1.69979259114232E-09   5.88154636812783E-07
     -3.64487967542878E-17
      6.37711960926338E-01
     -6.37711960926338E-01  -6.37711960926338E-01   0.00000000000000E+00   0.00000000000000E+00  -8.67848460544837E-07
     -3.32384625008265E-09  -8.71172306794920E-07   3.12278750463214E-17   0.00000000000000E+00   0.00000000000000E+00
      0.00000000000000E+00   0.00000000000000E+00   8.67763498914621E-07   3.40880788029866E-09   8.71172306794919E-07
     -3.12278750463214E-17
      6.45514176812582E-01
     -6.45514176812582E-01  -6.45514176812582E-01   0.00000000000000E+00   0.00000000000000E+00  -1.01605733016096E-06
     -4.43395490440641E-09  -1.02049128506537E-06   2.89752601872286E-17   0.00000000000000E+00   0.00000000000000E+00
      0.00000000000000E+00   0.00000000000000E+00   1.01595924387277E-06   4.53204119260095E-09   1.02049128506537E-06
     -2.89752601872286E-17
      6.59662194952972E-01
     -6.59662194952972E-01  -6.59662194952972E-01   0.00000000000000E+00   0.00000000000000E+00  -1.34333937933432E-06
     -7.41828651964052E-09  -1.35075766585396E-06   2.48644576759202E-17   0.00000000000000E+00   0.00000000000000E+00
      0.00000000000000E+00   0.00000000000000E+00   1.34321245093052E-06   7.54521492343971E-09   1.35075766585396E-06
     -2.48644576759202E-17
      6.72678371642130E-01
     -6.72678371642130E-01  -6.72678371642130E-01   0.00000000000000E+00   0.00000000000000E+00  -1.72243844313908E-06
     -1.17712523950406E-08  -1.73420969553412E-06   2.11800043263725E-17   0.00000000000000E+00   0.00000000000000E+00
      0.00000000000000E+00   0.00000000000000E+00   1.72227819657866E-06   1.19314989554638E-08   1.73420969553412E-06
     -2.11800043263725E-17
      6.84479705173634E-01
     -6.84479705173634E-01  -6.84479705173634E-01   0.00000000000000E+00   0.00000000000000E+00  -2.14088770838324E-06
     -1.76614214360250E-08  -2.15854912981926E-06   1.80359899457409E-17   0.00000000000000E+00   0.00000000000000E+00
      0.00000000000000E+00   0.00000000000000E+00   2.14069066854961E-06   1.78584612696482E-08   2.15854912981926E-06
     -1.80359899457410E-17
      6.95494283136370E-01
     -6.95494283136370E-01  -6.95494283136370E-01   0.00000000000000E+00   0.00000000000000E+00  -2.60209986950344E-06
     -2.54332161172733E-08  -2.62753308562071E-06   1.53487263143725E-17   0.00000000000000E+00   0.00000000000000E+00
      0.00000000000000E+00   0.00000000000000E+00   2.60186216893221E-06   2.56709166885070E-08   2.62753308562071E-06
     -1.53487263143725E-17
      7.05774555901591E-01
     -7.05774555901591E-01  -7.05774555901591E-01   0.00000000000000E+00   0.00000000000000E+00  -3.09713227294645E-06
     -3.52201632752427E-08  -3.13235243622169E-06   1.31015802015878E-17   0.00000000000000E+00   0.00000000000000E+00
      0.00000000000000E+00   0.00000000000000E+00   3.09685074909918E-06   3.55016871225058E-08   3.13235243622169E-06
     -1.31015802015877E-17
      7.15369477149130E-01
     -7.15369477149130E-01  -7.15369477149130E-01   0.00000000000000E+00   0.00000000000000E+00  -3.61527509015081E-06
     -4.70125286629588E-08  -3.66228761881377E-06   1.12521779507753E-17   0.00000000000000E+00   0.00000000000000E+00
      0.00000000000000E+00   0.00000000000000E+00   3.61494746491375E-06   4.73401539000187E-08   3.66228761881377E-06
     -1.12521779507753E-17
      7.24324736980167E-01
     -7.24324736980167E-01  -7.24324736980167E-01   0.00000000000000E+00   0.00000000000000E+00  -4.14514120594917E-06
     -6.06520451100638E-08  -4.20579325105924E-06   9.74588132577961E-18   0.00000000000000E+00   0.00000000000000E+00
      0.00000000000000E+00   0.00000000000000E+00   4.14476617706785E-06   6.10270739913791E-08   4.20579325105923E-06
     -9.74588132577961E-18
      7.32682979489135E-01
     -7.32682979489135E-01  -7.32682979489135E-01   0.00000000000000E+00   0.00000000000000E+00  -4.67574768088372E-06
     -7.58543213239079E-08  -4.75160200220763E-06   8.52585344822714E-18   0.00000000000000E+00   0.00000000000000E+00
      0.00000000000000E+00   0.00000000000000E+00   4.67532491876424E-06   7.62770834433779E-08   4.75160200220762E-06
     -8.52585344822715E-18
      7.48507918639447E-01
     -7.48507918639447E-01  -7.48507918639447E-01   0.00000000000000E+00   0.00000000000000E+00  -5.75440594388333E-06
     -1.11288654218811E-07  -5.86569459810214E-06   6.66476247107763E-18   0.00000000000000E+00   0.00000000000000E+00
      0.00000000000000E+00   0.00000000000000E+00   5.75388537271252E-06   1.11809225389619E-07   5.86569459810214E-06
     -6.66476247107761E-18
      7.63066862657734E-01
     -7.63066862657734E-01  -7.63066862657734E-01   0.00000000000000E+00   0.00000000000000E+00  -6.79521901019054E-06
     -1.50883479059975E-07  -6.94610248925052E-06   5.39315239466560E-18   0.00000000000000E+00   0.00000000000000E+00
      0.00000000000000E+00   0.00000000000000E+00   6.79460319254926E-06   1.51499296701270E-07   6.94610248925053E-06
     -5.39315239466563E-18
      7.76655210408135E-01
     -7.76655210408135E-01  -7.76655210408135E-01   0.00000000000000E+00   0.00000000000000E+00  -7.76887087093828E-06
     -1.92371134964267E-07  -7.96124200590255E-06   4.50476382490166E-18   0.00000000000000E+00   0.00000000000000E+00
      0.00000000000000E+00   0.00000000000000E+00   7.76816534374549E-06   1.93076662157050E-07   7.96124200590254E-06
     -4.50476382490161E-18
      7.89337668308510E-01
     -7.89337668308510E-01  -7.89337668308510E-01   0.00000000000000E+00   0.00000000000000E+00  -8.65056070319853E-06
     -2.33375179678428E-07  -8.88393588287696E-06   3.87417414540823E-18   0.00000000000000E+00   0.00000000000000E+00
      0.00000000000000E+00   0.00000000000000E+00   8.64977359294605E-06   2.34162289930909E-07   8.88393588287696E-06
     -3.87417414540820E-18
      8.01174629015526E-01
     -8.01174629015526E-01  -8.01174629015526E-01   0.00000000000000E+00   0.00000000000000E+00  -9.43237497113585E-06
     -2.72266818075414E-07  -9.70464178921127E-06   3.41676777421027E-18   0.00000000000000E+00   0.00000000000000E+00
      0.00000000000000E+00   0.00000000000000E+00   9.43151538038911E-06   2.73126408822169E-07   9.70464178921128E-06
     -3.41676777421026E-18
      8.12222459008741E-01
     -8.12222459008741E-01  -8.12222459008741E-01   0.00000000000000E+00   0.00000000000000E+00  -1.01177569477623E-05
     -3.08182656034038E-07  -1.04259396037964E-05   3.07682583825262E-18   0.00000000000000E+00   0.00000000000000E+00
      0.00000000000000E+00   0.00000000000000E+00   1.01168338121974E-05   3.09105791598927E-07   1.04259396037964E-05
     -3.07682583825254E-18
      8.22533767002409E-01
     -8.22533767002409E-01  -8.22533767002409E-01   0.00000000000000E+00   0.00000000000000E+00  -1.07160861294789E-05
     -3.40836661361231E-07  -1.10569227908401E-05   2.81785307117883E-18   0.00000000000000E+00   0.00000000000000E+00
      0.00000000000000E+00   0.00000000000000E+00   1.07151075871751E-05   3.41815203664958E-07   1.10569227908401E-05
     -2.81785307117884E-18
      8.32020170356583E-01
     -8.32020170356583E-01  -8.32020170356583E-01   0.00000000000000E+00   0.00000000000000E+00  -1.12315636600356E-05
     -3.69883043095746E-07  -1.16014467031313E-05   2.61846856233330E-18   0.00000000000000E+00   0.00000000000000E+00
      0.00000000000000E+00   0.00000000000000E+00   1.12305374759540E-05   3.70909227177308E-07   1.16014467031313E-05
     -2.61846856233326E-18
      8.41000632198534E-01
     -8.41000632198534E-01  -8.41000632198534E-01   0.00000000000000E+00   0.00000000000000E+00  -1.16902303126443E-05
     -3.96402363181523E-07  -1.20866326758258E-05   2.45700439027163E-18   0.00000000000000E+00   0.00000000000000E+00
      0.00000000000000E+00   0.00000000000000E+00   1.16891618336112E-05   3.97470842214649E-07   1.20866326758258E-05
     -2.45700439027159E-18
      8.58003639952629E-01
     -8.58003639952629E-01  -8.58003639952629E-01   0.00000000000000E+00   0.00000000000000E+00  -1.24885202051660E-05
     -4.43987353411423E-07  -1.29325075585774E-05   2.20655584179269E-18   0.00000000000000E+00   0.00000000000000E+00
      0.00000000000000E+00   0.00000000000000E+00   1.24873783685714E-05   4.45129190005949E-07   1.29325075585774E-05
     -2.20655584179269E-18
      8.73419700316342E-01
     -8.73419700316342E-01  -8.73419700316342E-01   0.00000000000000E+00   0.00000000000000E+00  -1.31449142957041E-05
     -4.84400727186751E-07  -1.36293150228909E-05   2.02527893782846E-18   0.00000000000000E+00   0.00000000000000E+00
      0.00000000000000E+00   0.00000000000000E+00   1.31437123930165E-05   4.85602629874396E-07   1.36293150228909E-05
     -2.02527893782852E-18
      8.87808023322473E-01
     -8.87808023322473E-01  -8.87808023322473E-01   0.00000000000000E+00   0.00000000000000E+00  -1.37107976530538E-05
     -5.20129023212111E-07  -1.42309266762660E-05   1.88405302676146E-18   0.00000000000000E+00   0.00000000000000E+00
      0.00000000000000E+00   0.00000000000000E+00   1.37095441327429E-05   5.21382543523044E-07   1.42309266762660E-05
     -1.88405302676141E-18
      9.01237124794863E-01
     -9.01237124794863E-01  -9.01237124794863E-01   0.00000000000000E+00   0.00000000000000E+00  -1.42057964607309E-05
     -5.52033645363851E-07  -1.47578301060947E-05   1.77045534568163E-18   0.00000000000000E+00   0.00000000000000E+00
      0.00000000000000E+00   0.00000000000000E+00   1.42044978925963E-05   5.53332213498459E-07   1.47578301060947E-05
     -1.77045534568164E-18
      9.13770952835760E-01
     -9.13770952835760E-01  -9.13770952835760E-01   0.00000000000000E+00   0.00000000000000E+00  -1.46438469692412E-05
     -5.80762122222605E-07  -1.52246090914638E-05   1.67680188887476E-18   0.00000000000000E+00   0.00000000000000E+00
      0.00000000000000E+00   0.00000000000000E+00   1.46425086004392E-05   5.82100491024545E-07   1.52246090914638E-05
     -1.67680188887477E-18
      9.25469192340597E-01
     -9.25469192340597E-01  -9.25469192340597E-01   0.00000000000000E+00   0.00000000000000E+00  -1.50349851133176E-05
     -6.06797303357600E-07  -1.56417824166752E-05   1.59811221669761E-18   0.00000000000000E+00   0.00000000000000E+00
      0.00000000000000E+00   0.00000000000000E+00   1.50336112480936E-05   6.08171168581580E-07   1.56417824166752E-05
     -1.59811221669767E-18
      9.36387549211779E-01