DF-ISE text

Info {
  version   = 1.0
  type      = xyplot
  datasets  = [
    "time"
    "top OuterVoltage" "top InnerVoltage" "top QuasiFermiPotential" "top DisplacementCurrent" "top eCurrent"
    "top hCurrent" "top TotalCurrent" "top Charge" "bottom OuterVoltage" "bottom InnerVoltage"
    "bottom QuasiFermiPotential" "bottom DisplacementCurrent" "bottom eCurrent" "bottom hCurrent" "bottom TotalCurrent"
    "bottom Charge" ]
  functions = [
    Time
    OuterVoltage InnerVoltage QuasiFermiPotential DisplacementCurrent eCurrent
    hCurrent TotalCurrent Charge OuterVoltage InnerVoltage
    QuasiFermiPotential DisplacementCurrent eCurrent hCurrent TotalCurrent
    Charge ]
}

Data {
      0.00000000000000E+00
      0.00000000000000E+00   0.00000000000000E+00   0.00000000000000E+00   0.00000000000000E+00  -1.94211193710354E-21
     -2.70190503531041E-31  -1.94211193737373E-21   4.15610993849021E-17   0.00000000000000E+00   0.00000000000000E+00
      0.00000000000000E+00   0.00000000000000E+00   1.94211193696595E-21   4.07778052338513E-31   1.94211193737373E-21
     -4.15610993849021E-17
      0.00000000000000E+00
      0.00000000000000E+00   0.00000000000000E+00   0.00000000000000E+00   0.00000000000000E+00  -5.01470745112136E-21
     -4.51410501088748E-31  -5.01470745157277E-21   4.15610995596522E-17   0.00000000000000E+00   0.00000000000000E+00
      0.00000000000000E+00   0.00000000000000E+00   5.01470745216414E-21  -5.91387419515044E-31   5.01470745157275E-21
     -4.15610995596522E-17
      1.00000000000000E-02
     -1.00000000000000E-02  -1.00000000000000E-02   0.00000000000000E+00   0.00000000000000E+00  -8.52227741605799E-15
     -3.36833468100230E-20  -8.52231109940480E-15   4.14235987617541E-17   0.00000000000000E+00   0.00000000000000E+00
      0.00000000000000E+00   0.00000000000000E+00   8.48726664211997E-15   3.50444572848190E-17   8.52231109940479E-15
     -4.14235987617541E-17
      2.89333333333333E-02
     -2.89333333333333E-02  -2.89333333333333E-02   0.00000000000000E+00   0.00000000000000E+00  -3.50866126704986E-14
     -2.91067790154796E-19  -3.50869037382888E-14   4.11670737041722E-17   0.00000000000000E+00   0.00000000000000E+00
      0.00000000000000E+00   0.00000000000000E+00   3.49634296193065E-14   1.23474118982255E-16   3.50869037382888E-14
     -4.11670737041722E-17
      4.40800000000000E-02
     -4.40800000000000E-02  -4.40800000000000E-02   0.00000000000000E+00   0.00000000000000E+00  -7.29046440252627E-14
     -3.15144277173934E-19  -7.29049591695399E-14   4.09654911950517E-17   0.00000000000000E+00   0.00000000000000E+00
      0.00000000000000E+00   0.00000000000000E+00   7.26817374766385E-14   2.23221692901292E-16   7.29049591695398E-14
     -4.09654911950517E-17
      5.80149333333333E-02
     -5.80149333333333E-02  -5.80149333333333E-02   0.00000000000000E+00   0.00000000000000E+00  -1.30250848943484E-13
     -5.84646762671097E-19  -1.30251433590247E-13   4.07829263973662E-17   0.00000000000000E+00   0.00000000000000E+00
      0.00000000000000E+00   0.00000000000000E+00   1.29903128255913E-13   3.48305334334067E-16   1.30251433590247E-13
     -4.07829263973663E-17
      7.08350720000000E-02
     -7.08350720000000E-02  -7.08350720000000E-02   0.00000000000000E+00   0.00000000000000E+00  -2.13899760103353E-13
     -9.96936610235118E-19  -2.13900757039964E-13   4.06174348867103E-17   0.00000000000000E+00   0.00000000000000E+00
      0.00000000000000E+00   0.00000000000000E+00   2.13398709485447E-13   5.02047554517064E-16   2.13900757039964E-13
     -4.06174348867103E-17
      8.28005347555556E-02
     -8.28005347555556E-02  -8.28005347555556E-02   0.00000000000000E+00   0.00000000000000E+00  -3.33562166818277E-13
     -1.60754151704994E-18  -3.33563774359794E-13   4.04651224921649E-17   0.00000000000000E+00   0.00000000000000E+00
      0.00000000000000E+00   0.00000000000000E+00   3.32873371988430E-13   6.90402371364154E-16   3.33563774359794E-13
     -4.04651224921648E-17
      9.39682999940741E-02
     -9.39682999940741E-02  -9.39682999940741E-02   0.00000000000000E+00   0.00000000000000E+00  -4.99807726793505E-13
     -2.49379342923603E-18  -4.99810220586935E-13   4.03248398789696E-17   0.00000000000000E+00   0.00000000000000E+00
      0.00000000000000E+00   0.00000000000000E+00   4.98892676168926E-13   9.17544418008473E-16   4.99810220586934E-13
     -4.03248398789695E-17
      1.04391547550025E-01
     -1.04391547550025E-01  -1.04391547550025E-01   0.00000000000000E+00   0.00000000000000E+00  -7.24490361401293E-13
     -3.75117060896171E-18  -7.24494112571902E-13   4.01955444259508E-17   0.00000000000000E+00   0.00000000000000E+00
      0.00000000000000E+00   0.00000000000000E+00   7.23306860448344E-13   1.18725212355809E-15   7.24494112571902E-13
     -4.01955444259507E-17
      1.24126229589291E-01
     -1.24126229589291E-01  -1.24126229589291E-01   0.00000000000000E+00   0.00000000000000E+00  -1.44672084173929E-12
     -8.02662963200082E-18  -1.44672886836892E-12   3.99550555330822E-17   0.00000000000000E+00   0.00000000000000E+00
      0.00000000000000E+00   0.00000000000000E+00   1.44482077319330E-12   1.90809517562362E-15   1.44672886836892E-12
     -3.99550555330821E-17
      1.39913975220704E-01
     -1.39913975220704E-01  -1.39913975220704E-01   0.00000000000000E+00   0.00000000000000E+00  -2.49620107134084E-12
     -1.55079913734979E-17  -2.49621657933221E-12   3.97666885565252E-17   0.00000000000000E+00   0.00000000000000E+00
      0.00000000000000E+00   0.00000000000000E+00   2.49344924170587E-12   2.76733762633970E-15   2.49621657933221E-12
     -3.97666885565252E-17
      1.54438701201605E-01
     -1.54438701201605E-01  -1.54438701201605E-01   0.00000000000000E+00   0.00000000000000E+00  -4.10290202084059E-12
     -2.58660286723917E-17  -4.10292788686926E-12   3.95964908608400E-17   0.00000000000000E+00   0.00000000000000E+00
      0.00000000000000E+00   0.00000000000000E+00   4.09904559867715E-12   3.88228819210652E-15   4.10292788686926E-12
     -3.95964908608400E-17
      1.67801449104033E-01
     -1.67801449104033E-01  -1.67801449104033E-01   0.00000000000000E+00   0.00000000000000E+00  -6.45644056917405E-12
     -4.33433798392821E-17  -6.45648391255389E-12   3.94424620166057E-17   0.00000000000000E+00   0.00000000000000E+00
      0.00000000000000E+00   0.00000000000000E+00   6.45119144782786E-12   5.29246472603443E-15   6.45648391255389E-12
     -3.94424620166057E-17
      1.80095177174267E-01
     -1.80095177174267E-01  -1.80095177174267E-01   0.00000000000000E+00   0.00000000000000E+00  -9.76759131250035E-12
     -6.60065817076577E-17  -9.76765731908206E-12   3.93028370888185E-17   0.00000000000000E+00   0.00000000000000E+00
      0.00000000000000E+00   0.00000000000000E+00   9.76062737983147E-12   7.02993925059206E-15   9.76765731908206E-12
     -3.93028370888185E-17
      1.91569323373152E-01
     -1.91569323373152E-01  -1.91569323373152E-01   0.00000000000000E+00   0.00000000000000E+00  -1.43354584611763E-11
     -1.08594504819231E-16  -1.43355670556811E-11   3.91742339776616E-17   0.00000000000000E+00   0.00000000000000E+00
      0.00000000000000E+00   0.00000000000000E+00   1.43263963233314E-11   9.17073234969275E-15   1.43355670556811E-11
     -3.91742339776616E-17
      2.02125537876126E-01
     -2.02125537876126E-01  -2.02125537876126E-01   0.00000000000000E+00   0.00000000000000E+00  -2.03547623732892E-11
     -1.63374881204051E-16  -2.03549257481704E-11   3.90572908268138E-17   0.00000000000000E+00   0.00000000000000E+00
      0.00000000000000E+00   0.00000000000000E+00   2.03432181266285E-11   1.17076215418918E-14   2.03549257481703E-11
     -3.90572908268138E-17
      2.21830471615011E-01
     -2.21830471615011E-01  -2.21830471615011E-01   0.00000000000000E+00   0.00000000000000E+00  -3.89096717523348E-11
     -3.49947165565477E-16  -3.89100216995004E-11   3.88421346136823E-17   0.00000000000000E+00   0.00000000000000E+00
      0.00000000000000E+00   0.00000000000000E+00   3.88915361504143E-11   1.84855490859829E-14   3.89100216995003E-11
     -3.88421346136823E-17
      2.37594418606119E-01
     -2.37594418606119E-01  -2.37594418606119E-01   0.00000000000000E+00   0.00000000000000E+00  -6.49110111972714E-11
     -6.43857819948460E-16  -6.49116550550914E-11   3.86724083357366E-17   0.00000000000000E+00   0.00000000000000E+00
      0.00000000000000E+00   0.00000000000000E+00   6.48849840325538E-11   2.66710225375216E-14   6.49116550550913E-11
     -3.86724083357367E-17
      2.51887063878057E-01
     -2.51887063878057E-01  -2.51887063878057E-01   0.00000000000000E+00   0.00000000000000E+00  -1.02664187664921E-10
     -1.11914331662619E-15  -1.02665306808238E-10   3.85197318331296E-17   0.00000000000000E+00   0.00000000000000E+00
      0.00000000000000E+00   0.00000000000000E+00   1.02628080655836E-10   3.72261524019972E-14   1.02665306808238E-10
     -3.85197318331296E-17
      2.65036297528240E-01
     -2.65036297528240E-01  -2.65036297528240E-01   0.00000000000000E+00   0.00000000000000E+00  -1.55724861236420E-10
     -1.86284386982975E-15  -1.55726724080290E-10   3.83796266660380E-17   0.00000000000000E+00   0.00000000000000E+00
      0.00000000000000E+00   0.00000000000000E+00   1.55676086090924E-10   5.06379893661643E-14   1.55726724080290E-10
     -3.83796266660380E-17
      2.77133592486408E-01
     -2.77133592486408E-01  -2.77133592486408E-01   0.00000000000000E+00   0.00000000000000E+00  -2.27374746196716E-10
     -2.97140920600194E-15  -2.27377717605922E-10   3.82503351894269E-17   0.00000000000000E+00   0.00000000000000E+00
      0.00000000000000E+00   0.00000000000000E+00   2.27310467708989E-10   6.72498969339933E-14   2.27377717605923E-10
     -3.82503351894269E-17
      2.88263103847923E-01
     -2.88263103847923E-01  -2.88263103847923E-01   0.00000000000000E+00   0.00000000000000E+00  -3.20660336083556E-10
     -4.57337055137622E-15  -3.20664909454107E-10   3.81303300184094E-17   0.00000000000000E+00   0.00000000000000E+00
      0.00000000000000E+00   0.00000000000000E+00   3.20577549988197E-10   8.73594659104900E-14   3.20664909454107E-10
     -3.81303300184094E-17
      2.98650647785337E-01
     -2.98650647785337E-01  -2.98650647785337E-01   0.00000000000000E+00   0.00000000000000E+00  -4.40121871541472E-10
     -6.83125370696269E-15  -4.40128702795179E-10   3.80166606628694E-17   0.00000000000000E+00   0.00000000000000E+00
      0.00000000000000E+00   0.00000000000000E+00   4.40017145761348E-10   1.11557033830816E-13   4.40128702795178E-10
     -3.80166606628695E-17
      3.08345688793590E-01
     -3.08345688793590E-01  -3.08345688793590E-01   0.00000000000000E+00   0.00000000000000E+00  -5.89130100891288E-10
     -9.93796916037875E-15  -5.89140038860448E-10   3.79083487704692E-17   0.00000000000000E+00   0.00000000000000E+00
      0.00000000000000E+00   0.00000000000000E+00   5.88999841467137E-10   1.40197393310442E-13   5.89140038860447E-10
     -3.79083487704692E-17
      3.26443098675662E-01
     -3.26443098675662E-01  -3.26443098675662E-01   0.00000000000000E+00   0.00000000000000E+00  -1.00394638238365E-09
     -2.00113482553590E-14  -1.00396639373191E-09   3.76972513643094E-17   0.00000000000000E+00   0.00000000000000E+00
      0.00000000000000E+00   0.00000000000000E+00   1.00375145553515E-09   2.14938196754078E-13   1.00396639373191E-09
     -3.76972513643094E-17
      3.42851416968741E-01
     -3.42851416968741E-01  -3.42851416968741E-01   0.00000000000000E+00   0.00000000000000E+00  -1.60515373105227E-09
     -3.77485953768001E-14  -1.60519147964765E-09   3.74903293532198E-17   0.00000000000000E+00   0.00000000000000E+00
      0.00000000000000E+00   0.00000000000000E+00   1.60487449365337E-09   3.16985994281375E-13   1.60519147964765E-09
     -3.74903293532198E-17
      3.57509514643891E-01
     -3.57509514643891E-01  -3.57509514643891E-01   0.00000000000000E+00   0.00000000000000E+00  -2.41047282193940E-09
     -6.65456660275219E-14  -2.41053936760543E-09   3.72864928202627E-17   0.00000000000000E+00   0.00000000000000E+00
      0.00000000000000E+00   0.00000000000000E+00   2.41009009471101E-09   4.49272894415419E-13   2.41053936760543E-09
     -3.72864928202627E-17
      3.70799523202694E-01
     -3.70799523202694E-01  -3.70799523202694E-01   0.00000000000000E+00   0.00000000000000E+00  -3.44771120298023E-09
     -1.11263316916480E-13  -3.44782246629715E-09   3.70798912211892E-17   0.00000000000000E+00   0.00000000000000E+00
      0.00000000000000E+00   0.00000000000000E+00   3.44720457332688E-09   6.17892970272956E-13   3.44782246629715E-09
     -3.70798912211892E-17
      3.83026331076793E-01
     -3.83026331076793E-01  -3.83026331076793E-01   0.00000000000000E+00   0.00000000000000E+00  -4.74861702391079E-09
     -1.78532589717832E-13  -4.74879555650050E-09   3.68654762859948E-17   0.00000000000000E+00   0.00000000000000E+00
      0.00000000000000E+00   0.00000000000000E+00   4.74796442530198E-09   8.31131198532369E-13   4.74879555650051E-09
     -3.68654762859948E-17
      3.94111970215976E-01
     -3.94111970215976E-01  -3.94111970215976E-01   0.00000000000000E+00   0.00000000000000E+00  -6.29998396267831E-09
     -2.74099051165504E-13  -6.30025806172948E-09   3.66454056275544E-17   0.00000000000000E+00   0.00000000000000E+00
      0.00000000000000E+00   0.00000000000000E+00   6.29916627668727E-09   1.09178504221055E-12   6.30025806172948E-09
     -3.66454056275544E-17
      4.04310758224024E-01
     -4.04310758224024E-01  -4.04310758224024E-01   0.00000000000000E+00   0.00000000000000E+00  -8.12031944303270E-09
     -4.06624260724845E-13  -8.12072606729343E-09   3.64164091290495E-17   0.00000000000000E+00   0.00000000000000E+00
      0.00000000000000E+00   0.00000000000000E+00   8.11931652354332E-09   1.40954375011815E-12   8.12072606729343E-09
     -3.64164091290496E-17
      4.22804560478618E-01
     -4.22804560478618E-01  -4.22804560478618E-01   0.00000000000000E+00   0.00000000000000E+00  -1.26794922233906E-08
     -8.31305632192337E-13  -1.26803235290228E-08   3.59193025614360E-17   0.00000000000000E+00   0.00000000000000E+00
      0.00000000000000E+00   0.00000000000000E+00   1.26780504911237E-08   2.27303789918991E-12   1.26803235290229E-08
     -3.59193025614360E-17
      4.39325690492722E-01
     -4.39325690492722E-01  -4.39325690492722E-01   0.00000000000000E+00   0.00000000000000E+00  -1.86019463993803E-08
     -1.57453385257817E-12  -1.86035209332328E-08   3.53612847646216E-17   0.00000000000000E+00   0.00000000000000E+00
      0.00000000000000E+00   0.00000000000000E+00   1.85999659979723E-08   3.55493526052191E-12   1.86035209332329E-08
     -3.53612847646216E-17
      4.53864284905134E-01
     -4.53864284905134E-01  -4.53864284905134E-01   0.00000000000000E+00   0.00000000000000E+00  -2.57958214703531E-08
     -2.76183826855736E-12  -2.57985833086217E-08   3.47569293514222E-17   0.00000000000000E+00   0.00000000000000E+00
      0.00000000000000E+00   0.00000000000000E+00   2.57932133333431E-08   5.36997527861085E-12   2.57985833086217E-08
     -3.47569293514221E-17
      4.66852095913555E-01
     -4.66852095913555E-01  -4.66852095913555E-01   0.00000000000000E+00   0.00000000000000E+00  -3.42959583131225E-08
     -4.56189815536944E-12  -3.43005202112779E-08   3.41081099191396E-17   0.00000000000000E+00   0.00000000000000E+00
      0.00000000000000E+00   0.00000000000000E+00   3.42926304721284E-08   7.88973914946805E-12   3.43005202112779E-08
     -3.41081099191396E-17
      4.78627711227856E-01
     -4.78627711227856E-01  -4.78627711227856E-01   0.00000000000000E+00   0.00000000000000E+00  -4.41686863823431E-08
     -7.18908470622098E-12  -4.41758754670493E-08   3.34160843331827E-17   0.00000000000000E+00   0.00000000000000E+00
      0.00000000000000E+00   0.00000000000000E+00   4.41645409607896E-08   1.13345062598470E-11   4.41758754670494E-08
     -3.34160843331827E-17
      4.89147260908633E-01
     -4.89147260908633E-01  -4.89147260908633E-01   0.00000000000000E+00   0.00000000000000E+00  -5.51615920694555E-08
     -1.07906228655327E-11  -5.51723826923210E-08   3.27034683006598E-17   0.00000000000000E+00   0.00000000000000E+00
      0.00000000000000E+00   0.00000000000000E+00   5.51565511188107E-08   1.58315735103266E-11   5.51723826923210E-08
     -3.27034683006598E-17
      5.08222710996440E-01
     -5.08222710996440E-01  -5.08222710996440E-01   0.00000000000000E+00   0.00000000000000E+00  -8.18951935007082E-08
     -2.25199989348895E-11  -8.19177134996431E-08   3.11543989788738E-17   0.00000000000000E+00   0.00000000000000E+00
      0.00000000000000E+00   0.00000000000000E+00   8.18880127749416E-08   2.97007247013792E-11   8.19177134996430E-08
     -3.11543989788737E-17
      5.24754767739207E-01
     -5.24754767739207E-01  -5.24754767739207E-01   0.00000000000000E+00   0.00000000000000E+00  -1.14540524797484E-07
     -4.25604411010804E-11  -1.14583085238585E-07   2.95142373001847E-17   0.00000000000000E+00   0.00000000000000E+00
      0.00000000000000E+00   0.00000000000000E+00   1.14530771714777E-07   5.23135238077014E-11   1.14583085238585E-07
     -2.95142373001847E-17
      5.39082550249604E-01
     -5.39082550249604E-01  -5.39082550249604E-01   0.00000000000000E+00   0.00000000000000E+00  -1.52502652816942E-07
     -7.37930849226874E-11  -1.52576445901865E-07   2.78522127277522E-17   0.00000000000000E+00   0.00000000000000E+00
      0.00000000000000E+00   0.00000000000000E+00   1.52489939198952E-07   8.65067029124390E-11   1.52576445901865E-07
     -2.78522127277522E-17
      5.51690998858754E-01
     -5.51690998858754E-01  -5.51690998858754E-01   0.00000000000000E+00   0.00000000000000E+00  -1.95577264741053E-07
     -1.19588952707631E-10  -1.95696853693760E-07   2.62014639533787E-17   0.00000000000000E+00   0.00000000000000E+00
      0.00000000000000E+00   0.00000000000000E+00   1.95561216030500E-07   1.35637663260573E-10   1.95696853693761E-07
     -2.62014639533787E-17
      5.62786433634806E-01
     -5.62786433634806E-01  -5.62786433634806E-01   0.00000000000000E+00   0.00000000000000E+00  -2.42876565191701E-07
     -1.82594018504069E-10  -2.43059159210205E-07   2.46077595208545E-17   0.00000000000000E+00   0.00000000000000E+00
      0.00000000000000E+00   0.00000000000000E+00   2.42856872979765E-07   2.02286230439611E-10   2.43059159210205E-07
     -2.46077595208545E-17
      5.72994233628774E-01
     -5.72994233628774E-01  -5.72994233628774E-01   0.00000000000000E+00   0.00000000000000E+00  -2.95857952134315E-07
     -2.69007347476321E-10  -2.96126959481792E-07   2.30344533003691E-17   0.00000000000000E+00   0.00000000000000E+00
      0.00000000000000E+00   0.00000000000000E+00   2.95834193410430E-07   2.92766071361905E-10   2.96126959481792E-07
     -2.30344533003691E-17
      5.82385409623224E-01
     -5.82385409623224E-01  -5.82385409623224E-01   0.00000000000000E+00   0.00000000000000E+00  -3.54133615042107E-07
     -3.83409931611767E-10  -3.54517024973719E-07   2.15087386192939E-17   0.00000000000000E+00   0.00000000000000E+00
      0.00000000000000E+00   0.00000000000000E+00   3.54105394416625E-07   4.11630557093342E-10   3.54517024973719E-07
     -2.15087386192938E-17
      5.91150507218045E-01
     -5.91150507218045E-01  -5.91150507218045E-01   0.00000000000000E+00   0.00000000000000E+00  -4.18142084256797E-07
     -5.32443447369479E-10  -4.18674527704166E-07   2.00310436901470E-17   0.00000000000000E+00   0.00000000000000E+00
      0.00000000000000E+00   0.00000000000000E+00   4.18108970387636E-07   5.65557316530214E-10   4.18674527704166E-07
     -2.00310436901470E-17
      5.99331264973210E-01
     -5.99331264973210E-01  -5.99331264973210E-01   0.00000000000000E+00   0.00000000000000E+00  -4.87482948072466E-07
     -7.21498939965544E-10  -4.88204447012432E-07   1.86194979593476E-17   0.00000000000000E+00   0.00000000000000E+00
      0.00000000000000E+00   0.00000000000000E+00   4.87444537951100E-07   7.59909061332792E-10   4.88204447012433E-07
     -1.86194979593476E-17
      6.06966638878032E-01
     -6.06966638878032E-01  -6.06966638878032E-01   0.00000000000000E+00   0.00000000000000E+00  -5.61618190860368E-07
     -9.55345265503647E-10  -5.62573536125872E-07   1.72877342161863E-17   0.00000000000000E+00   0.00000000000000E+00
      0.00000000000000E+00   0.00000000000000E+00   5.61574120540330E-07   9.99415585542555E-10   5.62573536125873E-07
     -1.72877342161863E-17
      6.21219336833698E-01
     -6.21219336833698E-01  -6.21219336833698E-01   0.00000000000000E+00   0.00000000000000E+00  -7.27727194985717E-07
     -1.59794718687296E-09  -7.29325142172590E-07   1.48146686683467E-17   0.00000000000000E+00   0.00000000000000E+00
      0.00000000000000E+00   0.00000000000000E+00   7.27670442836709E-07   1.65469933588082E-09   7.29325142172590E-07
     -1.48146686683468E-17
      6.27395505947820E-01
     -6.27395505947820E-01  -6.27395505947820E-01   0.00000000000000E+00   0.00000000000000E+00  -8.12139237561180E-07
     -1.98709652315731E-09  -8.14126334084337E-07   1.37683199799326E-17   0.00000000000000E+00   0.00000000000000E+00
      0.00000000000000E+00   0.00000000000000E+00   8.12076039535809E-07   2.05029454852840E-09   8.14126334084337E-07
     -1.37683199799326E-17
      6.39089052803891E-01
     -6.39089052803891E-01  -6.39089052803891E-01   0.00000000000000E+00   0.00000000000000E+00  -9.94447586246306E-07
     -2.97044344107724E-09  -9.97418029687384E-07   1.18673718220427E-17   0.00000000000000E+00   0.00000000000000E+00
      0.00000000000000E+00   0.00000000000000E+00   9.94370463868578E-07   3.04756581880537E-09   9.97418029687384E-07
     -1.18673718220427E-17
      6.49691201953396E-01
     -6.49691201953396E-01  -6.49691201953396E-01   0.00000000000000E+00   0.00000000000000E+00  -1.18621710760544E-06
     -4.21364947850139E-09  -1.19043075708394E-06   1.02696272939159E-17   0.00000000000000E+00   0.00000000000000E+00
      0.00000000000000E+00   0.00000000000000E+00   1.18612533817272E-06   4.30541891121774E-09   1.19043075708394E-06
     -1.02696272939159E-17
      6.59586541159600E-01
     -6.59586541159600E-01  -6.59586541159600E-01   0.00000000000000E+00   0.00000000000000E+00  -1.38771772296369E-06
     -5.74749262224499E-09  -1.39346521558593E-06   8.91452791241842E-18   0.00000000000000E+00   0.00000000000000E+00
      0.00000000000000E+00   0.00000000000000E+00   1.38761057140138E-06   5.85464418454596E-09   1.39346521558593E-06
     -8.91452791241842E-18
      6.68822191085391E-01
     -6.68822191085391E-01  -6.68822191085391E-01   0.00000000000000E+00   0.00000000000000E+00  -1.59384729529172E-06
     -7.55392759896584E-09  -1.60140122289069E-06   7.78387284359291E-18   0.00000000000000E+00   0.00000000000000E+00
      0.00000000000000E+00   0.00000000000000E+00   1.59372442772780E-06   7.67679516289124E-09   1.60140122289069E-06
     -7.78387284359293E-18
      6.77442131016129E-01
     -6.77442131016129E-01  -6.77442131016129E-01   0.00000000000000E+00   0.00000000000000E+00  -1.79949351961800E-06
     -9.59080126932729E-09  -1.80908432088733E-06   6.85162085886781E-18   0.00000000000000E+00   0.00000000000000E+00
      0.00000000000000E+00   0.00000000000000E+00   1.79935500519263E-06   9.72931569469695E-09   1.80908432088733E-06
     -6.85162085886782E-18
      6.85487408284817E-01
     -6.85487408284817E-01  -6.85487408284817E-01   0.00000000000000E+00   0.00000000000000E+00  -2.00006210083669E-06
     -1.17983110187229E-08  -2.01186041185541E-06   6.08877592314373E-18   0.00000000000000E+00   0.00000000000000E+00
      0.00000000000000E+00   0.00000000000000E+00   1.99990837076654E-06   1.19520410888775E-08   2.01186041185541E-06
     -6.08877592314371E-18
      7.00719799913535E-01
     -7.00719799913535E-01  -7.00719799913535E-01   0.00000000000000E+00   0.00000000000000E+00  -2.39061037117584E-06
     -1.67021453632421E-08  -2.40731251653908E-06   4.91228442971419E-18   0.00000000000000E+00   0.00000000000000E+00
      0.00000000000000E+00   0.00000000000000E+00   2.39042720162883E-06   1.68853149102586E-08   2.40731251653908E-06
     -4.91228442971416E-18
      7.07422052230170E-01
     -7.07422052230170E-01  -7.07422052230170E-01   0.00000000000000E+00   0.00000000000000E+00  -2.56185393087759E-06
     -1.90950322023701E-08  -2.58094896307996E-06   4.49513397652321E-18   0.00000000000000E+00   0.00000000000000E+00
      0.00000000000000E+00   0.00000000000000E+00   2.56165796159860E-06   1.92910014813663E-08   2.58094896307996E-06
     -4.49513397652328E-18
      7.20111649949667E-01
     -7.20111649949667E-01  -7.20111649949667E-01   0.00000000000000E+00   0.00000000000000E+00  -2.87588773397915E-06
     -2.38466585480597E-08  -2.89973439252721E-06   3.84794041796040E-18   0.00000000000000E+00   0.00000000000000E+00
      0.00000000000000E+00   0.00000000000000E+00   2.87566853475310E-06   2.40658577741139E-08   2.89973439252722E-06
     -3.84794041796040E-18
      7.31786079851604E-01
     -7.31786079851604E-01  -7.31786079851604E-01   0.00000000000000E+00   0.00000000000000E+00  -3.14571956902377E-06
     -2.82816286385524E-08  -3.17400119766232E-06   3.38934982619073E-18   0.00000000000000E+00   0.00000000000000E+00
      0.00000000000000E+00   0.00000000000000E+00   3.14548074559633E-06   2.85204520659895E-08   3.17400119766232E-06
     -3.38934982619077E-18
      7.42682214426745E-01
     -7.42682214426745E-01  -7.42682214426745E-01   0.00000000000000E+00   0.00000000000000E+00  -3.37664117313471E-06
     -3.23121776259673E-08  -3.40895335076067E-06   3.05388053935126E-18   0.00000000000000E+00   0.00000000000000E+00
      0.00000000000000E+00   0.00000000000000E+00   3.37638589052503E-06   3.25674602356429E-08   3.40895335076067E-06
     -3.05388053935129E-18
      7.52851940030210E-01
     -7.52851940030210E-01  -7.52851940030210E-01   0.00000000000000E+00   0.00000000000000E+00  -3.57273875630737E-06
     -3.58867178621331E-08  -3.60862547416950E-06   2.80340680285884E-18   0.00000000000000E+00   0.00000000000000E+00
      0.00000000000000E+00   0.00000000000000E+00   3.57246981152821E-06   3.61556626412920E-08   3.60862547416950E-06
     -2.80340680285887E-18
      7.62343683926778E-01
     -7.62343683926778E-01  -7.62343683926778E-01   0.00000000000000E+00   0.00000000000000E+00  -3.73928824338846E-06
     -3.90182250550259E-08  -3.77830646844348E-06   2.61211136276201E-18   0.00000000000000E+00   0.00000000000000E+00
      0.00000000000000E+00   0.00000000000000E+00   3.73900797715811E-06   3.92984912853711E-08   3.77830646844348E-06
     -2.61211136276196E-18
      7.71202644896907E-01
     -7.71202644896907E-01  -7.71202644896907E-01   0.00000000000000E+00   0.00000000000000E+00  -3.88146365388559E-06
     -4.17508184166087E-08  -3.92321447230219E-06   2.46264220161559E-18   0.00000000000000E+00   0.00000000000000E+00
      0.00000000000000E+00   0.00000000000000E+00   3.88117396742099E-06   4.20405048812119E-08   3.92321447230220E-06
     -2.46264220161558E-18
      7.79352888989427E-01
     -7.79352888989427E-01  -7.79352888989427E-01   0.00000000000000E+00   0.00000000000000E+00  -4.00208680214708E-06
     -4.41051639366539E-08  -4.04619196608373E-06   2.34488603243704E-18   0.00000000000000E+00   0.00000000000000E+00
      0.00000000000000E+00   0.00000000000000E+00   4.00178932603005E-06   4.44026400536798E-08   4.04619196608373E-06
     -2.34488603243707E-18
      7.87068453397011E-01
     -7.87068453397011E-01  -7.87068453397011E-01   0.00000000000000E+00   0.00000000000000E+00  -4.10830330380235E-06
     -4.62008941867957E-08  -4.15450419798915E-06   2.24752913277064E-18   0.00000000000000E+00   0.00000000000000E+00
      0.00000000000000E+00   0.00000000000000E+00   4.10799913960692E-06   4.65050583822310E-08   4.15450419798915E-06
     -2.24752913277065E-18
      7.94372521036192E-01
     -7.94372521036192E-01  -7.94372521036192E-01   0.00000000000000E+00   0.00000000000000E+00  -4.20254829018621E-06
     -4.80748119193994E-08  -4.25062310210561E-06   2.16576849920425E-18   0.00000000000000E+00   0.00000000000000E+00
      0.00000000000000E+00   0.00000000000000E+00   4.20223833717284E-06   4.83847649327706E-08   4.25062310210561E-06
     -2.16576849920425E-18
      8.01287038401283E-01
     -8.01287038401283E-01  -8.01287038401283E-01   0.00000000000000E+00   0.00000000000000E+00  -4.28678185148558E-06
     -4.97588313561557E-08  -4.33654068284174E-06   2.09614427318602E-18   0.00000000000000E+00   0.00000000000000E+00
      0.00000000000000E+00   0.00000000000000E+00   4.28646684747585E-06   5.00738353658915E-08   4.33654068284175E-06
     -2.09614427318608E-18
      8.14378524612521E-01
     -8.14378524612521E-01  -8.14378524612521E-01   0.00000000000000E+00   0.00000000000000E+00  -4.43494588144516E-06
     -5.27362735766213E-08  -4.48768215502178E-06   1.98101821425661E-18   0.00000000000000E+00   0.00000000000000E+00
      0.00000000000000E+00   0.00000000000000E+00   4.43462228987883E-06   5.30598651429387E-08   4.48768215502177E-06
     -1.98101821425663E-18
      8.26422691926860E-01
     -8.26422691926860E-01  -8.26422691926860E-01   0.00000000000000E+00   0.00000000000000E+00  -4.56041455741637E-06
     -5.52672798916018E-08  -4.61568183730797E-06   1.89026590272868E-18   0.00000000000000E+00   0.00000000000000E+00
      0.00000000000000E+00   0.00000000000000E+00   4.56008400223517E-06   5.55978350727843E-08   4.61568183730796E-06
     -1.89026590272864E-18
      8.37663914753577E-01
     -8.37663914753577E-01  -8.37663914753577E-01   0.00000000000000E+00   0.00000000000000E+00  -4.66990661529964E-06
     -5.74792789241885E-08  -4.72738589422383E-06   1.81568275590405E-18   0.00000000000000E+00   0.00000000000000E+00
      0.00000000000000E+00   0.00000000000000E+00   4.66957022041895E-06   5.78156738048758E-08   4.72738589422383E-06
     -1.81568275590411E-18
      8.48155722725180E-01