DF-ISE text

Info {
  version   = 1.0
  type      = xyplot
  datasets  = [
    "time"
    "top OuterVoltage" "top InnerVoltage" "top QuasiFermiPotential" "top DisplacementCurrent" "top eCurrent"
    "top hCurrent" "top TotalCurrent" "top Charge" "bottom OuterVoltage" "bottom InnerVoltage"
    "bottom QuasiFermiPotential" "bottom DisplacementCurrent" "bottom eCurrent" "bottom hCurrent" "bottom TotalCurrent"
    "bottom Charge" ]
  functions = [
    Time
    OuterVoltage InnerVoltage QuasiFermiPotential DisplacementCurrent eCurrent
    hCurrent TotalCurrent Charge OuterVoltage InnerVoltage
    QuasiFermiPotential DisplacementCurrent eCurrent hCurrent TotalCurrent
    Charge ]
}

Data {
      0.00000000000000E+00
      0.00000000000000E+00   0.00000000000000E+00   0.00000000000000E+00   0.00000000000000E+00  -3.33770691338147E-21
     -1.05956935417713E-29  -3.33770692397717E-21   7.44947411606069E-17   0.00000000000000E+00   0.00000000000000E+00
      0.00000000000000E+00   0.00000000000000E+00   3.33770691339284E-21   1.05843248311032E-29   3.33770692397717E-21
     -7.44947411606069E-17
      0.00000000000000E+00
      0.00000000000000E+00   0.00000000000000E+00   0.00000000000000E+00   0.00000000000000E+00  -8.63728504239509E-21
     -7.39053199351014E-32  -8.63728504246899E-21   7.44947411917213E-17   0.00000000000000E+00   0.00000000000000E+00
      0.00000000000000E+00   0.00000000000000E+00   8.63728504238876E-21   8.02465709616229E-32   8.63728504246901E-21
     -7.44947411917215E-17
      1.00000000000000E-02
     -1.00000000000000E-02  -1.00000000000000E-02   0.00000000000000E+00   0.00000000000000E+00  -1.63574160793629E-16
     -3.37105879539122E-20  -1.63607871381583E-16   7.40868464041542E-17   0.00000000000000E+00   0.00000000000000E+00
      0.00000000000000E+00   0.00000000000000E+00   1.51767222012224E-16   1.18406493693587E-17   1.63607871381583E-16
     -7.40868464041541E-17
      2.89333333333333E-02
     -2.89333333333333E-02  -2.89333333333333E-02   0.00000000000000E+00   0.00000000000000E+00  -6.89257614987064E-16
     -1.19893338410144E-19  -6.89377508325474E-16   7.33078956864779E-17   0.00000000000000E+00   0.00000000000000E+00
      0.00000000000000E+00   0.00000000000000E+00   6.48520310625211E-16   4.08571977002623E-17   6.89377508325473E-16
     -7.33078956864778E-17
      4.60995555555556E-02
     -4.60995555555556E-02  -4.60995555555556E-02   0.00000000000000E+00   0.00000000000000E+00  -1.60451339679646E-15
     -2.82249233685461E-19  -1.60479564603015E-15   7.25938862565793E-17   0.00000000000000E+00   0.00000000000000E+00
      0.00000000000000E+00   0.00000000000000E+00   1.52696922911602E-15   7.78264169141248E-17   1.60479564603015E-15
     -7.25938862565793E-17
      6.16635970370370E-02
     -6.16635970370370E-02  -6.16635970370370E-02   0.00000000000000E+00   0.00000000000000E+00  -3.11692185218162E-15
     -6.82565127848093E-19  -3.11760441730947E-15   7.19399315784950E-17   0.00000000000000E+00   0.00000000000000E+00
      0.00000000000000E+00   0.00000000000000E+00   2.99330193218872E-15   1.24302485120747E-16   3.11760441730947E-15
     -7.19399315784949E-17
      7.61900357530864E-02
     -7.61900357530864E-02  -7.61900357530864E-02   0.00000000000000E+00   0.00000000000000E+00  -5.58121878357240E-15
     -1.23658334228225E-18  -5.58245536691468E-15   7.13237536386838E-17   0.00000000000000E+00   0.00000000000000E+00
      0.00000000000000E+00   0.00000000000000E+00   5.39924446357081E-15   1.83210903343872E-16   5.58245536691468E-15
     -7.13237536386838E-17
      8.97480452213992E-02
     -8.97480452213992E-02  -8.97480452213992E-02   0.00000000000000E+00   0.00000000000000E+00  -9.45967013925249E-15
     -2.10312118905047E-18  -9.46177326044154E-15   7.07434427590117E-17   0.00000000000000E+00   0.00000000000000E+00
      0.00000000000000E+00   0.00000000000000E+00   9.20492169008532E-15   2.56851570356222E-16   9.46177326044155E-15
     -7.07434427590118E-17
      1.02402187391824E-01
     -1.02402187391824E-01  -1.02402187391824E-01   0.00000000000000E+00   0.00000000000000E+00  -1.53636928076801E-14
     -3.46650419150610E-18  -1.53671593118716E-14   7.01971602055929E-17   0.00000000000000E+00   0.00000000000000E+00
      0.00000000000000E+00   0.00000000000000E+00   1.50196434960847E-14   3.47515815786921E-16   1.53671593118716E-14
     -7.01971602055929E-17
      1.14212720084221E-01
     -1.14212720084221E-01  -1.14212720084221E-01   0.00000000000000E+00   0.00000000000000E+00  -2.40705558473718E-14
     -5.49010646661516E-18  -2.40760459538384E-14   6.96831374528735E-17   0.00000000000000E+00   0.00000000000000E+00
      0.00000000000000E+00   0.00000000000000E+00   2.36186708416844E-14   4.57375112154088E-16   2.40760459538385E-14
     -6.96831374528735E-17
      1.25393357699690E-01
     -1.25393357699690E-01  -1.25393357699690E-01   0.00000000000000E+00   0.00000000000000E+00  -3.67508641965681E-14
     -8.46322910819385E-18  -3.67593274256763E-14   6.91927425018382E-17   0.00000000000000E+00   0.00000000000000E+00
      0.00000000000000E+00   0.00000000000000E+00   3.61687089525013E-14   5.90618473175063E-16   3.67593274256763E-14
     -6.91927425018382E-17
      1.46562031584978E-01
     -1.46562031584978E-01  -1.46562031584978E-01   0.00000000000000E+00   0.00000000000000E+00  -8.16827454754349E-14
     -1.90947269973895E-17  -8.17018402024323E-14   6.82538759497755E-17   0.00000000000000E+00   0.00000000000000E+00
      0.00000000000000E+00   0.00000000000000E+00   8.07497916825697E-14   9.52048519862635E-16   8.17018402024323E-14
     -6.82538759497756E-17
      1.64908215618895E-01
     -1.64908215618895E-01  -1.64908215618895E-01   0.00000000000000E+00   0.00000000000000E+00  -1.63023956408760E-13
     -3.87641027184376E-17  -1.63062720511479E-13   6.74288188253573E-17   0.00000000000000E+00   0.00000000000000E+00
      0.00000000000000E+00   0.00000000000000E+00   1.61626256885250E-13   1.43646362622896E-15   1.63062720511479E-13
     -6.74288188253574E-17
      1.81542089142979E-01
     -1.81542089142979E-01  -1.81542089142979E-01   0.00000000000000E+00   0.00000000000000E+00  -3.04952415092527E-13
     -7.43891333829688E-17  -3.05026804225910E-13   6.66712854999469E-17   0.00000000000000E+00   0.00000000000000E+00
      0.00000000000000E+00   0.00000000000000E+00   3.02938324289675E-13   2.08847993623524E-15   3.05026804225910E-13
     -6.66712854999469E-17
      1.97067037765458E-01
     -1.97067037765458E-01  -1.97067037765458E-01   0.00000000000000E+00   0.00000000000000E+00  -5.47070620974394E-13
     -1.36236763793241E-16  -5.47206857738187E-13   6.59558303243418E-17   0.00000000000000E+00   0.00000000000000E+00
      0.00000000000000E+00   0.00000000000000E+00   5.44236993865013E-13   2.96986387317355E-15   5.47206857738187E-13
     -6.59558303243419E-17
      2.11556989813104E-01
     -2.11556989813104E-01  -2.11556989813104E-01   0.00000000000000E+00   0.00000000000000E+00  -9.43876777833533E-13
     -2.35475503580564E-16  -9.44112253337113E-13   6.52804892179443E-17   0.00000000000000E+00   0.00000000000000E+00
      0.00000000000000E+00   0.00000000000000E+00   9.39974830136088E-13   4.13742320102233E-15   9.44112253337111E-13
     -6.52804892179441E-17
      2.24887745696939E-01
     -2.24887745696939E-01  -2.24887745696939E-01   0.00000000000000E+00   0.00000000000000E+00  -1.55889070965713E-12
     -3.95197160188036E-16  -1.55928590681732E-12   6.46525048000163E-17   0.00000000000000E+00   0.00000000000000E+00
      0.00000000000000E+00   0.00000000000000E+00   1.55364416365360E-12   5.64174316371857E-15   1.55928590681732E-12
     -6.46525048000162E-17
      2.37329784521852E-01
     -2.37329784521852E-01  -2.37329784521852E-01   0.00000000000000E+00   0.00000000000000E+00  -2.48976801606195E-12
     -6.29259659344237E-16  -2.49039727572129E-12   6.40604453206144E-17   0.00000000000000E+00   0.00000000000000E+00
      0.00000000000000E+00   0.00000000000000E+00   2.48283769678273E-12   7.55957893855710E-15   2.49039727572129E-12
     -6.40604453206145E-17
      2.48776460240771E-01
     -2.48776460240771E-01  -2.48776460240771E-01   0.00000000000000E+00   0.00000000000000E+00  -3.82997986193104E-12
     -9.92901069263524E-16  -3.83097276300030E-12   6.35105404433685E-17   0.00000000000000E+00   0.00000000000000E+00
      0.00000000000000E+00   0.00000000000000E+00   3.82100738532425E-12   9.96537767604276E-15   3.83097276300030E-12
     -6.35105404433686E-17
      2.59307401902177E-01
     -2.59307401902177E-01  -2.59307401902177E-01   0.00000000000000E+00   0.00000000000000E+00  -5.69150614621896E-12
     -1.49225437889141E-15  -5.69299840059785E-12   6.30000982672441E-17   0.00000000000000E+00   0.00000000000000E+00
      0.00000000000000E+00   0.00000000000000E+00   5.68010398645536E-12   1.28944141424845E-14   5.69299840059785E-12
     -6.30000982672440E-17
      2.78965159670135E-01
     -2.78965159670135E-01  -2.78965159670135E-01   0.00000000000000E+00   0.00000000000000E+00  -1.19178072159306E-11
     -3.19191749050650E-15  -1.19209991334211E-11   6.20352551406086E-17   0.00000000000000E+00   0.00000000000000E+00
      0.00000000000000E+00   0.00000000000000E+00   1.18998604881088E-11   2.11386453122976E-14   1.19209991334211E-11
     -6.20352551406086E-17
      2.96788193379750E-01
     -2.96788193379750E-01  -2.96788193379750E-01   0.00000000000000E+00   0.00000000000000E+00  -2.32790698115099E-11
     -6.36144835196251E-15  -2.32854312598618E-11   6.11463483515352E-17   0.00000000000000E+00   0.00000000000000E+00
      0.00000000000000E+00   0.00000000000000E+00   2.32517676146411E-11   3.36636452207516E-14   2.32854312598618E-11
     -6.11463483515353E-17
      3.13185384392596E-01
     -3.13185384392596E-01  -3.13185384392596E-01   0.00000000000000E+00   0.00000000000000E+00  -4.30709002894121E-11
     -1.19930564559784E-14  -4.30828933458681E-11   6.03160426777896E-17   0.00000000000000E+00   0.00000000000000E+00
      0.00000000000000E+00   0.00000000000000E+00   4.30304097564355E-11   5.24835894325790E-14   4.30828933458681E-11
     -6.03160426777896E-17
      3.28270800124414E-01
     -3.28270800124414E-01  -3.28270800124414E-01   0.00000000000000E+00   0.00000000000000E+00  -7.58028597494016E-11
     -2.14922262843858E-14  -7.58243519756860E-11   5.95409271826019E-17   0.00000000000000E+00   0.00000000000000E+00
      0.00000000000000E+00   0.00000000000000E+00   7.57442251518292E-11   8.01268238568582E-14   7.58243519756860E-11
     -5.95409271826018E-17
      3.41344827091990E-01
     -3.41344827091990E-01  -3.41344827091990E-01   0.00000000000000E+00   0.00000000000000E+00  -1.23621975273769E-10
     -3.56370299933196E-14  -1.23657612303763E-10   5.88598510255736E-17   0.00000000000000E+00   0.00000000000000E+00
      0.00000000000000E+00   0.00000000000000E+00   1.23540633969805E-10   1.16978333957219E-13   1.23657612303763E-10
     -5.88598510255735E-17
      3.53372931902160E-01
     -3.53372931902160E-01  -3.53372931902160E-01   0.00000000000000E+00   0.00000000000000E+00  -1.93695191703880E-10
     -5.67485349683908E-14  -1.93751940238849E-10   5.82250155517196E-17   0.00000000000000E+00   0.00000000000000E+00
      0.00000000000000E+00   0.00000000000000E+00   1.93584657973716E-10   1.67282265132523E-13   1.93751940238849E-10
     -5.82250155517197E-17
      3.75504644752872E-01
     -3.75504644752872E-01  -3.75504644752872E-01   0.00000000000000E+00   0.00000000000000E+00  -4.41085612531129E-10
     -1.33576311817302E-13  -4.41219188842946E-10   5.70335317180181E-17   0.00000000000000E+00   0.00000000000000E+00
      0.00000000000000E+00   0.00000000000000E+00   4.40888550817094E-10   3.30638025852009E-13   4.41219188842946E-10
     -5.70335317180181E-17
      3.92619836024090E-01
     -3.92619836024090E-01  -3.92619836024090E-01   0.00000000000000E+00   0.00000000000000E+00  -8.29764148545867E-10
     -2.58958819405331E-13  -8.30023107365272E-10   5.60870487915885E-17   0.00000000000000E+00   0.00000000000000E+00
      0.00000000000000E+00   0.00000000000000E+00   8.29452408686135E-10   5.70698679137367E-13   8.30023107365272E-10
     -5.60870487915885E-17
      4.07909406893044E-01
     -4.07909406893044E-01  -4.07909406893044E-01   0.00000000000000E+00   0.00000000000000E+00  -1.45160075603095E-09
     -4.67799065269301E-13  -1.45206855509622E-09   5.52173787877005E-17   0.00000000000000E+00   0.00000000000000E+00
      0.00000000000000E+00   0.00000000000000E+00   1.45112800034580E-09   9.40554750418406E-13   1.45206855509622E-09
     -5.52173787877005E-17
      4.21771951147563E-01
     -4.21771951147563E-01  -4.21771951147563E-01   0.00000000000000E+00   0.00000000000000E+00  -2.39531950270515E-09
     -7.99668116827453E-13  -2.39611917082197E-09   5.44025880596629E-17   0.00000000000000E+00   0.00000000000000E+00
      0.00000000000000E+00   0.00000000000000E+00   2.39462773676602E-09   1.49143405595593E-12   2.39611917082197E-09
     -5.44025880596630E-17
      4.34340657938326E-01
     -4.34340657938326E-01  -4.34340657938326E-01   0.00000000000000E+00   0.00000000000000E+00  -3.74543461722049E-09
     -1.30022381273657E-12  -3.74673484103323E-09   5.36346884196815E-17   0.00000000000000E+00   0.00000000000000E+00
      0.00000000000000E+00   0.00000000000000E+00   3.74445766956065E-09   2.27717147258211E-12   3.74673484103323E-09
     -5.36346884196815E-17
      4.45736285428619E-01
     -4.45736285428619E-01  -4.45736285428619E-01   0.00000000000000E+00   0.00000000000000E+00  -5.57471334422222E-09
     -2.02028124960381E-12  -5.57673362547182E-09   5.29064149907939E-17   0.00000000000000E+00   0.00000000000000E+00
      0.00000000000000E+00   0.00000000000000E+00   5.57338050625014E-09   3.35311922167147E-12   5.57673362547182E-09
     -5.29064149907939E-17
      4.66400356611015E-01
     -4.66400356611015E-01  -4.66400356611015E-01   0.00000000000000E+00   0.00000000000000E+00  -1.11946635588640E-08
     -4.49190609848162E-12  -1.11991554649624E-08   5.14751452288197E-17   0.00000000000000E+00   0.00000000000000E+00
      0.00000000000000E+00   0.00000000000000E+00   1.11923531891166E-08   6.80227584583078E-12   1.11991554649624E-08
     -5.14751452288197E-17
      4.75217026982171E-01
     -4.75217026982171E-01  -4.75217026982171E-01   0.00000000000000E+00   0.00000000000000E+00  -1.49041023625397E-08
     -6.31638005932861E-12  -1.49104187425990E-08   5.08055957292598E-17   0.00000000000000E+00   0.00000000000000E+00
      0.00000000000000E+00   0.00000000000000E+00   1.49012031464025E-08   9.21559619653162E-12   1.49104187425990E-08
     -5.08055957292598E-17
      4.83445919328583E-01
     -4.83445919328583E-01  -4.83445919328583E-01   0.00000000000000E+00   0.00000000000000E+00  -1.93354710079712E-08
     -8.68198159968404E-12  -1.93441529895709E-08   5.01395408619470E-17   0.00000000000000E+00   0.00000000000000E+00
      0.00000000000000E+00   0.00000000000000E+00   1.93319057083295E-08   1.22472812413778E-11   1.93441529895709E-08
     -5.01395408619471E-17
      4.98148206987506E-01
     -4.98148206987506E-01  -4.98148206987506E-01   0.00000000000000E+00   0.00000000000000E+00  -3.02598930422827E-08
     -1.53246746564686E-11  -3.02752177169391E-08   4.88283978684818E-17   0.00000000000000E+00   0.00000000000000E+00
      0.00000000000000E+00   0.00000000000000E+00   3.02548015935912E-08   2.04161233479664E-11   3.02752177169391E-08
     -4.88283978684818E-17
      5.10890189625240E-01
     -5.10890189625240E-01  -5.10890189625240E-01   0.00000000000000E+00   0.00000000000000E+00  -4.38132351987824E-08
     -2.50715049937556E-11  -4.38383067037762E-08   4.75380470658126E-17   0.00000000000000E+00   0.00000000000000E+00
      0.00000000000000E+00   0.00000000000000E+00   4.38063965097109E-08   3.19101940651868E-11   4.38383067037761E-08
     -4.75380470658126E-17
      5.22442920550118E-01
     -5.22442920550118E-01  -5.22442920550118E-01   0.00000000000000E+00   0.00000000000000E+00  -6.04271733376620E-08
     -3.91675062103587E-11  -6.04663408438724E-08   4.62182848507528E-17   0.00000000000000E+00   0.00000000000000E+00
      0.00000000000000E+00   0.00000000000000E+00   6.04183295085466E-08   4.80113353258190E-11   6.04663408438724E-08
     -4.62182848507528E-17
      5.32917396588674E-01
     -5.32917396588674E-01  -5.32917396588674E-01   0.00000000000000E+00   0.00000000000000E+00  -8.00006046233049E-08
     -5.86798322091334E-11  -8.00592844555140E-08   4.48794378576604E-17   0.00000000000000E+00   0.00000000000000E+00
      0.00000000000000E+00   0.00000000000000E+00   7.99895239174940E-08   6.97605380201906E-11   8.00592844555142E-08
     -4.48794378576604E-17
      5.52190432499618E-01
     -5.52190432499618E-01  -5.52190432499618E-01   0.00000000000000E+00   0.00000000000000E+00  -1.30820371071790E-07
     -1.23358442422172E-10  -1.30943729514213E-07   4.20129379009603E-17   0.00000000000000E+00   0.00000000000000E+00
      0.00000000000000E+00   0.00000000000000E+00   1.30803856271465E-07   1.39873242747539E-10   1.30943729514212E-07
     -4.20129379009602E-17
      5.60542081394360E-01
     -5.60542081394360E-01  -5.60542081394360E-01   0.00000000000000E+00   0.00000000000000E+00  -1.60470753693743E-07
     -1.70136836402825E-10  -1.60640890530146E-07   4.05951994713203E-17   0.00000000000000E+00   0.00000000000000E+00
      0.00000000000000E+00   0.00000000000000E+00   1.60451222961773E-07   1.89667568372809E-10   1.60640890530146E-07
     -4.05951994713202E-17
      5.68336953696119E-01
     -5.68336953696119E-01  -5.68336953696119E-01   0.00000000000000E+00   0.00000000000000E+00  -1.93346883731588E-07
     -2.29600734915819E-10  -1.93576484466504E-07   3.91730517241336E-17   0.00000000000000E+00   0.00000000000000E+00
      0.00000000000000E+00   0.00000000000000E+00   1.93324094862148E-07   2.52389604355086E-10   1.93576484466503E-07
     -3.91730517241336E-17
      5.75612167844428E-01
     -5.75612167844428E-01  -5.75612167844428E-01   0.00000000000000E+00   0.00000000000000E+00  -2.29287373062614E-07
     -3.03608823349138E-10  -2.29590981885963E-07   3.77603606975097E-17   0.00000000000000E+00   0.00000000000000E+00
      0.00000000000000E+00   0.00000000000000E+00   2.29261098918977E-07   3.29882966986188E-10   2.29590981885963E-07
     -3.77603606975097E-17
      5.89192567587938E-01
     -5.89192567587938E-01  -5.89192567587938E-01   0.00000000000000E+00   0.00000000000000E+00  -3.12653740335153E-07
     -5.10860392347008E-10  -3.13164600727500E-07   3.49141824413106E-17   0.00000000000000E+00   0.00000000000000E+00
      0.00000000000000E+00   0.00000000000000E+00   3.12619593228863E-07   5.45007498635987E-10   3.13164600727499E-07
     -3.49141824413106E-17
      6.01686535351967E-01
     -6.01686535351967E-01  -6.01686535351967E-01   0.00000000000000E+00   0.00000000000000E+00  -4.12400247993667E-07
     -8.23036096642706E-10  -4.13223284090310E-07   3.20842479608043E-17   0.00000000000000E+00   0.00000000000000E+00
      0.00000000000000E+00   0.00000000000000E+00   4.12356930487909E-07   8.66353602401114E-10   4.13223284090310E-07
     -3.20842479608043E-17
      6.13180985694873E-01
     -6.13180985694873E-01  -6.13180985694873E-01   0.00000000000000E+00   0.00000000000000E+00  -5.28657958562119E-07
     -1.27362848827505E-09  -5.29931587050394E-07   2.93436149505317E-17   0.00000000000000E+00   0.00000000000000E+00
      0.00000000000000E+00   0.00000000000000E+00   5.28604161209570E-07   1.32742584082382E-09   5.29931587050394E-07
     -2.93436149505317E-17
      6.23755880010347E-01
     -6.23755880010347E-01  -6.23755880010347E-01   0.00000000000000E+00   0.00000000000000E+00  -6.61034818845016E-07
     -1.89866904594518E-09  -6.62933487890961E-07   2.67490312527971E-17   0.00000000000000E+00   0.00000000000000E+00
      0.00000000000000E+00   0.00000000000000E+00   6.60969260281983E-07   1.96422760897934E-09   6.62933487890962E-07
     -2.67490312527971E-17
      6.43495682732566E-01
     -6.43495682732566E-01  -6.43495682732566E-01   0.00000000000000E+00   0.00000000000000E+00  -9.90974241579385E-07
     -3.96553840065419E-09  -9.94939779980039E-07   2.18754722482732E-17   0.00000000000000E+00   0.00000000000000E+00
      0.00000000000000E+00   0.00000000000000E+00   9.90879811903892E-07   4.05996807614763E-09   9.94939779980040E-07
     -2.18754722482732E-17
      6.51786399875897E-01
     -6.51786399875897E-01  -6.51786399875897E-01   0.00000000000000E+00   0.00000000000000E+00  -1.16906343759748E-06
     -5.37768210009536E-09  -1.17444111969757E-06   1.98771258870102E-17   0.00000000000000E+00   0.00000000000000E+00
      0.00000000000000E+00   0.00000000000000E+00   1.16895357416851E-06   5.48754552905900E-09   1.17444111969757E-06
     -1.98771258870102E-17
      6.67262405210116E-01
     -6.67262405210116E-01  -6.67262405210116E-01   0.00000000000000E+00   0.00000000000000E+00  -1.57865867815094E-06
     -9.39675499302535E-09  -1.58805543314397E-06   1.63295877392836E-17   0.00000000000000E+00   0.00000000000000E+00
      0.00000000000000E+00   0.00000000000000E+00   1.57851351588784E-06   9.54191725612276E-09   1.58805543314396E-06
     -1.63295877392836E-17
      6.80468596428650E-01
     -6.80468596428650E-01  -6.80468596428650E-01   0.00000000000000E+00   0.00000000000000E+00  -2.02080224393760E-06
     -1.49137810120077E-08  -2.03571602494961E-06   1.35723065941723E-17   0.00000000000000E+00   0.00000000000000E+00
      0.00000000000000E+00   0.00000000000000E+00   2.02061912650810E-06   1.50968984415007E-08   2.03571602494960E-06
     -1.35723065941723E-17
      6.92442209800120E-01
     -6.92442209800120E-01  -6.92442209800120E-01   0.00000000000000E+00   0.00000000000000E+00  -2.50572020681674E-06
     -2.23308570958855E-08  -2.52805106391263E-06   1.13433996038484E-17   0.00000000000000E+00   0.00000000000000E+00
      0.00000000000000E+00   0.00000000000000E+00   2.50549551368056E-06   2.25555502320690E-08   2.52805106391263E-06
     -1.13433996038483E-17
      7.03617582280160E-01
     -7.03617582280160E-01  -7.03617582280160E-01   0.00000000000000E+00   0.00000000000000E+00  -3.03578314579824E-06
     -3.20233743616048E-08  -3.06780652015985E-06   9.52184745348391E-18   0.00000000000000E+00   0.00000000000000E+00
      0.00000000000000E+00   0.00000000000000E+00   3.03551298919244E-06   3.22935309674049E-08   3.06780652015984E-06
     -9.52184745348390E-18
      7.14047929928196E-01
     -7.14047929928196E-01  -7.14047929928196E-01   0.00000000000000E+00   0.00000000000000E+00  -3.59902270817695E-06
     -4.40768282164117E-08  -3.64309953639336E-06   8.05413072309747E-18   0.00000000000000E+00   0.00000000000000E+00
      0.00000000000000E+00   0.00000000000000E+00   3.59870417574681E-06   4.43953606465510E-08   3.64309953639336E-06
     -8.05413072309756E-18
      7.23782921066364E-01
     -7.23782921066364E-01  -7.23782921066364E-01   0.00000000000000E+00   0.00000000000000E+00  -4.18182168646694E-06
     -5.83850404512370E-08  -4.24020672691818E-06   6.88203273327626E-18   0.00000000000000E+00   0.00000000000000E+00
      0.00000000000000E+00   0.00000000000000E+00   4.18145300172262E-06   5.87537251955650E-08   4.24020672691818E-06
     -6.88203273327624E-18
      7.32868912795320E-01
     -7.32868912795320E-01  -7.32868912795320E-01   0.00000000000000E+00   0.00000000000000E+00  -4.77041253579411E-06
     -7.46618422068157E-08  -4.84507437800093E-06   5.94990346799707E-18   0.00000000000000E+00   0.00000000000000E+00
      0.00000000000000E+00   0.00000000000000E+00   4.76999309316558E-06   7.50812848353647E-08   4.84507437800094E-06
     -5.94990346799712E-18
      7.41470318298732E-01
     -7.41470318298732E-01  -7.41470318298732E-01   0.00000000000000E+00   0.00000000000000E+00  -5.36071503281047E-06
     -9.27603960945963E-08  -5.45347542890506E-06   5.19895321440466E-18   0.00000000000000E+00   0.00000000000000E+00
      0.00000000000000E+00   0.00000000000000E+00   5.36024458043738E-06   9.32308484676791E-08   5.45347542890506E-06
     -5.19895321440470E-18
      7.57755646051858E-01
     -7.57755646051858E-01  -7.57755646051858E-01   0.00000000000000E+00   0.00000000000000E+00  -6.53739415310083E-06
     -1.33869684766963E-07  -6.67126383786779E-06   4.07840725267536E-18   0.00000000000000E+00   0.00000000000000E+00
      0.00000000000000E+00   0.00000000000000E+00   6.53682176231634E-06   1.34442075551445E-07   6.67126383786779E-06
     -4.07840725267536E-18
      7.72738147584735E-01
     -7.72738147584735E-01  -7.72738147584735E-01   0.00000000000000E+00   0.00000000000000E+00  -7.64292383079165E-06
     -1.78209958351050E-07  -7.82113378914270E-06   3.32741685126681E-18   0.00000000000000E+00   0.00000000000000E+00
      0.00000000000000E+00   0.00000000000000E+00   7.64225547964197E-06   1.78878309500732E-07   7.82113378914270E-06
     -3.32741685126680E-18
      7.86721815682086E-01
     -7.86721815682086E-01  -7.86721815682086E-01   0.00000000000000E+00   0.00000000000000E+00  -8.65172447855183E-06
     -2.23129079456520E-07  -8.87485355800835E-06   2.80727398777978E-18   0.00000000000000E+00   0.00000000000000E+00
      0.00000000000000E+00   0.00000000000000E+00   8.65096857465836E-06   2.23884983349985E-07   8.87485355800835E-06
     -2.80727398777978E-18
      7.99773239239614E-01
     -7.99773239239614E-01  -7.99773239239614E-01   0.00000000000000E+00   0.00000000000000E+00  -9.54612159990113E-06
     -2.66238346410919E-07  -9.81235994631205E-06   2.43843065544237E-18   0.00000000000000E+00   0.00000000000000E+00
      0.00000000000000E+00   0.00000000000000E+00   9.54528823665462E-06   2.67071709657434E-07   9.81235994631206E-06
     -2.43843065544234E-18
      8.11954567893307E-01
     -8.11954567893307E-01  -8.11954567893307E-01   0.00000000000000E+00   0.00000000000000E+00  -1.03263314329693E-05
     -3.06175693572429E-07  -1.06325071265417E-05   2.16968443855342E-18   0.00000000000000E+00   0.00000000000000E+00
      0.00000000000000E+00   0.00000000000000E+00   1.03254307479678E-05   3.07076378573936E-07   1.06325071265417E-05
     -2.16968443855343E-18
      8.23323807970087E-01
     -8.23323807970087E-01  -8.23323807970087E-01   0.00000000000000E+00   0.00000000000000E+00  -1.10025371277387E-05
     -3.42422306937011E-07  -1.13449594346757E-05   1.96830651698822E-18   0.00000000000000E+00   0.00000000000000E+00
      0.00000000000000E+00   0.00000000000000E+00   1.10015783665223E-05   3.43381068153417E-07   1.13449594346757E-05
     -1.96830651698820E-18
      8.33935098708415E-01
     -8.33935098708415E-01  -8.33935098708415E-01   0.00000000000000E+00   0.00000000000000E+00  -1.15887301236283E-05
     -3.74991689304493E-07  -1.19637218129328E-05   1.81326058687420E-18   0.00000000000000E+00   0.00000000000000E+00
      0.00000000000000E+00   0.00000000000000E+00   1.15877212717073E-05   3.76000541225518E-07   1.19637218129328E-05
     -1.81326058687416E-18
      8.43697486187676E-01
     -8.43697486187676E-01  -8.43697486187676E-01   0.00000000000000E+00   0.00000000000000E+00  -1.20920019111522E-05
     -4.03756338708590E-07  -1.24957582498608E-05   1.69247358460285E-18   0.00000000000000E+00   0.00000000000000E+00
      0.00000000000000E+00   0.00000000000000E+00   1.20909502686829E-05   4.04807981177878E-07   1.24957582498608E-05
     -1.69247358460281E-18
      8.52809047834987E-01
     -8.52809047834987E-01  -8.52809047834987E-01   0.00000000000000E+00   0.00000000000000E+00  -1.25332756486849E-05
     -4.29558701477173E-07  -1.29628343501621E-05   1.59476193516557E-18   0.00000000000000E+00   0.00000000000000E+00
      0.00000000000000E+00   0.00000000000000E+00   1.25321866604418E-05   4.30647689720290E-07   1.29628343501621E-05
     -1.59476193516551E-18
      8.70060271220563E-01
     -8.70060271220563E-01  -8.70060271220563E-01   0.00000000000000E+00   0.00000000000000E+00  -1.33034384669323E-05
     -4.75831364089224E-07  -1.37792698310215E-05   1.44011034322969E-18   0.00000000000000E+00   0.00000000000000E+00
      0.00000000000000E+00   0.00000000000000E+00   1.33022846897197E-05   4.76985141301853E-07   1.37792698310215E-05
     -1.44011034322970E-18
      8.85931396735292E-01
     -8.85931396735292E-01  -8.85931396735292E-01   0.00000000000000E+00   0.00000000000000E+00  -1.39494830623211E-05
     -5.15809537261090E-07  -1.44652925995822E-05   1.32377559874677E-18   0.00000000000000E+00   0.00000000000000E+00
      0.00000000000000E+00   0.00000000000000E+00   1.39482752984006E-05   5.17017301181600E-07   1.44652925995822E-05
     -1.32377559874676E-18
      9.00744447215706E-01
     -9.00744447215706E-01  -9.00744447215706E-01   0.00000000000000E+00   0.00000000000000E+00  -1.45094664987837E-05
     -5.51288427688619E-07  -1.50607549264723E-05   1.23139164613251E-18   0.00000000000000E+00   0.00000000000000E+00
      0.00000000000000E+00   0.00000000000000E+00   1.45082121726362E-05   5.52542753836118E-07   1.50607549264723E-05
     -1.23139164613256E-18
      9.14569960997425E-01
     -9.14569960997425E-01  -9.14569960997425E-01   0.00000000000000E+00   0.00000000000000E+00  -1.50017441038331E-05
     -5.83094277711447E-07  -1.55848383815446E-05   1.15587659236400E-18   0.00000000000000E+00   0.00000000000000E+00
      0.00000000000000E+00   0.00000000000000E+00   1.50004489978161E-05   5.84389383728454E-07   1.55848383815446E-05
     -1.15587659236401E-18
      9.27473773860364E-01
     -9.27473773860364E-01  -9.27473773860364E-01   0.00000000000000E+00   0.00000000000000E+00  -1.54391600670927E-05
     -6.11828058711086E-07  -1.60509881258038E-05   1.09279063404165E-18   0.00000000000000E+00   0.00000000000000E+00
      0.00000000000000E+00   0.00000000000000E+00   1.54378288307351E-05   6.13159295068707E-07   1.60509881258038E-05
     -1.09279063404170E-18
      9.39517332532440E-01