DF-ISE text

Info {
  version   = 1.0
  type      = xyplot
  datasets  = [
    "time"
    "top OuterVoltage" "top InnerVoltage" "top QuasiFermiPotential" "top DisplacementCurrent" "top eCurrent"
    "top hCurrent" "top TotalCurrent" "top Charge" "bottom OuterVoltage" "bottom InnerVoltage"
    "bottom QuasiFermiPotential" "bottom DisplacementCurrent" "bottom eCurrent" "bottom hCurrent" "bottom TotalCurrent"
    "bottom Charge" ]
  functions = [
    Time
    OuterVoltage InnerVoltage QuasiFermiPotential DisplacementCurrent eCurrent
    hCurrent TotalCurrent Charge OuterVoltage InnerVoltage
    QuasiFermiPotential DisplacementCurrent eCurrent hCurrent TotalCurrent
    Charge ]
}

Data {
      0.00000000000000E+00
      0.00000000000000E+00   0.00000000000000E+00   0.00000000000000E+00   0.00000000000000E+00  -7.04078594420384E-21
      2.39191157863640E-31  -7.04078594396465E-21   6.94917747629117E-17   0.00000000000000E+00   0.00000000000000E+00
      0.00000000000000E+00   0.00000000000000E+00   7.04078594415848E-21  -1.93824879489244E-31   7.04078594396466E-21
     -6.94917747629117E-17
      0.00000000000000E+00
      0.00000000000000E+00   0.00000000000000E+00   0.00000000000000E+00   0.00000000000000E+00  -1.57539538671064E-15
      2.78493291763846E-27  -1.57539538670786E-15   6.94919373206961E-17   0.00000000000000E+00   0.00000000000000E+00
      0.00000000000000E+00   0.00000000000000E+00   1.57539538671072E-15  -2.86683433696046E-27   1.57539538670785E-15
     -6.94919373206962E-17
      1.00000000000000E-02
     -1.00000000000000E-02  -1.00000000000000E-02   0.00000000000000E+00   0.00000000000000E+00  -9.17616537439245E-15
     -1.28828947723336E-21  -9.17616666268192E-15   6.94269768172010E-17   0.00000000000000E+00   0.00000000000000E+00
      0.00000000000000E+00   0.00000000000000E+00   9.14222804190023E-15   3.39386207816995E-17   9.17616666268193E-15
     -6.94269768172010E-17
      1.93333333333333E-02
     -1.93333333333333E-02  -1.93333333333333E-02   0.00000000000000E+00   0.00000000000000E+00  -2.10230711941742E-14
     -3.03116850519475E-21  -2.10230742253427E-14   6.93671797897115E-17   0.00000000000000E+00   0.00000000000000E+00
      0.00000000000000E+00   0.00000000000000E+00   2.09509864017436E-14   7.20878235990758E-17   2.10230742253427E-14
     -6.93671797897116E-17
      3.70044444444445E-02
     -3.70044444444445E-02  -3.70044444444445E-02   0.00000000000000E+00   0.00000000000000E+00  -5.69914513024821E-14
     -8.70646062718779E-21  -5.69914600089427E-14   6.92561663966557E-17   0.00000000000000E+00   0.00000000000000E+00
      0.00000000000000E+00   0.00000000000000E+00   5.68241559943761E-14   1.67304014566566E-16   5.69914600089427E-14
     -6.92561663966556E-17
      5.25550222222222E-02
     -5.25550222222222E-02  -5.25550222222222E-02   0.00000000000000E+00   0.00000000000000E+00  -1.12945851457364E-13
      9.89381372875788E-21  -1.12945841563550E-13   6.91608568272214E-17   0.00000000000000E+00   0.00000000000000E+00
      0.00000000000000E+00   0.00000000000000E+00   1.12660002365563E-13   2.85839197987809E-16   1.12945841563550E-13
     -6.91608568272214E-17
      6.68615537777778E-02
     -6.68615537777778E-02  -6.68615537777778E-02   0.00000000000000E+00   0.00000000000000E+00  -1.99148719251566E-13
     -3.31498853284844E-20  -1.99148752401451E-13   6.90751374458021E-17   0.00000000000000E+00   0.00000000000000E+00
      0.00000000000000E+00   0.00000000000000E+00   1.98712552907301E-13   4.36199494150562E-16   1.99148752401451E-13
     -6.90751374458019E-17
      8.00235628088889E-02
     -8.00235628088889E-02  -8.00235628088889E-02   0.00000000000000E+00   0.00000000000000E+00  -3.26604564190202E-13
     -5.67234910701876E-20  -3.26604620913693E-13   6.89979334887366E-17   0.00000000000000E+00   0.00000000000000E+00
      0.00000000000000E+00   0.00000000000000E+00   3.25981631011012E-13   6.22989902681518E-16   3.26604620913693E-13
     -6.89979334887365E-17
      9.21326111175111E-02
     -9.21326111175111E-02  -9.21326111175111E-02   0.00000000000000E+00   0.00000000000000E+00  -5.07890290177943E-13
     -9.18313230869934E-20  -5.07890382009266E-13   6.89283025618463E-17   0.00000000000000E+00   0.00000000000000E+00
      0.00000000000000E+00   0.00000000000000E+00   5.07040184249971E-13   8.50197759294495E-16   5.07890382009266E-13
     -6.89283025618464E-17
      1.03272935561444E-01
     -1.03272935561444E-01  -1.03272935561444E-01   0.00000000000000E+00   0.00000000000000E+00  -7.56613678224642E-13
     -1.42129572042662E-19  -7.56613820354214E-13   6.88654173745889E-17   0.00000000000000E+00   0.00000000000000E+00
      0.00000000000000E+00   0.00000000000000E+00   7.55492858024715E-13   1.12096232949866E-15   7.56613820354214E-13
     -6.88654173745888E-17
      1.13670571709114E-01
     -1.13670571709114E-01  -1.13670571709114E-01   0.00000000000000E+00   0.00000000000000E+00  -1.09238235044202E-12
     -2.12906761893076E-19  -1.09238256334878E-12   6.88077335332363E-17   0.00000000000000E+00   0.00000000000000E+00
      0.00000000000000E+00   0.00000000000000E+00   1.09093999954550E-12   1.44256380328283E-15   1.09238256334878E-12
     -6.88077335332364E-17
      1.23375032113606E-01
     -1.23375032113606E-01  -1.23375032113606E-01   0.00000000000000E+00   0.00000000000000E+00  -1.53404307995448E-12
     -3.09835947836593E-19  -1.53404338979042E-12   6.87547669525436E-17   0.00000000000000E+00   0.00000000000000E+00
      0.00000000000000E+00   0.00000000000000E+00   1.53222458036320E-12   1.81880942721568E-15   1.53404338979042E-12
     -6.87547669525436E-17
      1.41748810479445E-01
     -1.41748810479445E-01  -1.41748810479445E-01   0.00000000000000E+00   0.00000000000000E+00  -2.89771203833961E-12
     -6.28678753272821E-19  -2.89771266701837E-12   6.86567582345936E-17   0.00000000000000E+00   0.00000000000000E+00
      0.00000000000000E+00   0.00000000000000E+00   2.89491033163012E-12   2.80233538824383E-15   2.89771266701836E-12
     -6.86567582345936E-17
      1.56447833172116E-01
     -1.56447833172116E-01  -1.56447833172116E-01   0.00000000000000E+00   0.00000000000000E+00  -4.79321085270642E-12
     -1.10632825992696E-18  -4.79321195903468E-12   6.85804530922071E-17   0.00000000000000E+00   0.00000000000000E+00
      0.00000000000000E+00   0.00000000000000E+00   4.78926717981860E-12   3.94477921608418E-15   4.79321195903468E-12
     -6.85804530922070E-17
      1.69970934049373E-01
     -1.69970934049373E-01  -1.69970934049373E-01   0.00000000000000E+00   0.00000000000000E+00  -7.58529114949764E-12
     -1.86119878574579E-18  -7.58529301069642E-12   6.85118556803013E-17   0.00000000000000E+00   0.00000000000000E+00
      0.00000000000000E+00   0.00000000000000E+00   7.57989912051617E-12   5.39389018025605E-15   7.58529301069642E-12
     -6.85118556803012E-17
      1.82412186856450E-01
     -1.82412186856450E-01  -1.82412186856450E-01   0.00000000000000E+00   0.00000000000000E+00  -1.15322079678407E-11
     -3.00495412862513E-18  -1.15322109727948E-11   6.84500572553797E-17   0.00000000000000E+00   0.00000000000000E+00
      0.00000000000000E+00   0.00000000000000E+00   1.15250236061967E-11   7.18736659816696E-15   1.15322109727948E-11
     -6.84500572553798E-17
      1.93858139438960E-01
     -1.93858139438960E-01  -1.93858139438960E-01   0.00000000000000E+00   0.00000000000000E+00  -1.69057669806751E-11
     -4.67135989721299E-18  -1.69057716520350E-11   6.83942664515720E-17   0.00000000000000E+00   0.00000000000000E+00
      0.00000000000000E+00   0.00000000000000E+00   1.68964147693732E-11   9.35688266177947E-15   1.69057716520350E-11
     -6.83942664515720E-17
      2.04541028515970E-01
     -2.04541028515970E-01  -2.04541028515970E-01   0.00000000000000E+00   0.00000000000000E+00  -2.40961092896641E-11
     -7.05403799472584E-18  -2.40961163437021E-11   6.83430680491590E-17   0.00000000000000E+00   0.00000000000000E+00
      0.00000000000000E+00   0.00000000000000E+00   2.40841482142661E-11   1.19681294360227E-14   2.40961163437021E-11
     -6.83430680491590E-17
      2.24197544417668E-01
     -2.24197544417668E-01  -2.24197544417668E-01   0.00000000000000E+00   0.00000000000000E+00  -4.59293580204567E-11
     -1.50697175465683E-17  -4.59293730901743E-11   6.82508766019545E-17   0.00000000000000E+00   0.00000000000000E+00
      0.00000000000000E+00   0.00000000000000E+00   4.59105454719381E-11   1.88276182362072E-14   4.59293730901743E-11
     -6.82508766019545E-17
      2.41233191532473E-01
     -2.41233191532473E-01  -2.41233191532473E-01   0.00000000000000E+00   0.00000000000000E+00  -7.96874388328939E-11
     -2.91096385800556E-17  -7.96874679425325E-11   6.81727807671163E-17   0.00000000000000E+00   0.00000000000000E+00
      0.00000000000000E+00   0.00000000000000E+00   7.96595759024968E-11   2.78920400357840E-14   7.96874679425326E-11
     -6.81727807671163E-17
      2.56678844916563E-01
     -2.56678844916563E-01  -2.56678844916563E-01   0.00000000000000E+00   0.00000000000000E+00  -1.30387885304344E-10
     -5.28913347020151E-17  -1.30387938195679E-10   6.81030394071490E-17   0.00000000000000E+00   0.00000000000000E+00
      0.00000000000000E+00   0.00000000000000E+00   1.30348098758611E-10   3.98394370681410E-14   1.30387938195679E-10
     -6.81030394071489E-17
      2.70888846029926E-01
     -2.70888846029926E-01  -2.70888846029926E-01   0.00000000000000E+00   0.00000000000000E+00  -2.03737924935250E-10
     -9.16280675811146E-17  -2.03738016563318E-10   6.80393593013678E-17   0.00000000000000E+00   0.00000000000000E+00
      0.00000000000000E+00   0.00000000000000E+00   2.03682717397920E-10   5.52991653974625E-14   2.03738016563318E-10
     -6.80393593013678E-17
      2.97035248078513E-01
     -2.97035248078513E-01  -2.97035248078513E-01   0.00000000000000E+00   0.00000000000000E+00  -4.54394354224897E-10
     -2.51882701349102E-16  -4.54394606107598E-10   6.79215265913506E-17   0.00000000000000E+00   0.00000000000000E+00
      0.00000000000000E+00   0.00000000000000E+00   4.54293655197571E-10   1.00950910028021E-13   4.54394606107599E-10
     -6.79215265913506E-17
      3.10108449102807E-01
     -3.10108449102807E-01  -3.10108449102807E-01   0.00000000000000E+00   0.00000000000000E+00  -6.71498148998747E-10
     -4.17635395330656E-16  -6.71498566634142E-10   6.78610152744429E-17   0.00000000000000E+00   0.00000000000000E+00
      0.00000000000000E+00   0.00000000000000E+00   6.71362363631391E-10   1.36203002751492E-13   6.71498566634142E-10
     -6.78610152744431E-17
      3.22135794045157E-01
     -3.22135794045157E-01  -3.22135794045157E-01   0.00000000000000E+00   0.00000000000000E+00  -9.55155271577167E-10
     -6.65015310598783E-16  -9.55155936592478E-10   6.78033847789933E-17   0.00000000000000E+00   0.00000000000000E+00
      0.00000000000000E+00   0.00000000000000E+00   9.54976747724426E-10   1.79188868052489E-13   9.55155936592479E-10
     -6.78033847789932E-17
      3.33040586792888E-01
     -3.33040586792888E-01  -3.33040586792888E-01   0.00000000000000E+00   0.00000000000000E+00  -1.30658442657934E-09
     -1.01393587399451E-15  -1.30658544051522E-09   6.77486933205922E-17   0.00000000000000E+00   0.00000000000000E+00
      0.00000000000000E+00   0.00000000000000E+00   1.30635594181111E-09   2.29498704110592E-13   1.30658544051522E-09
     -6.77486933205922E-17
      3.42927598884164E-01
     -3.42927598884164E-01  -3.42927598884164E-01   0.00000000000000E+00   0.00000000000000E+00  -1.72649983613876E-09
     -1.48631490931286E-15  -1.72650132245367E-09   6.76963316795861E-17   0.00000000000000E+00   0.00000000000000E+00
      0.00000000000000E+00   0.00000000000000E+00   1.72621441411320E-09   2.86908340469144E-13   1.72650132245367E-09
     -6.76963316795861E-17
      3.61383354787879E-01
     -3.61383354787879E-01  -3.61383354787879E-01   0.00000000000000E+00   0.00000000000000E+00  -2.86195984398053E-09
     -3.03465842356584E-15  -2.86196287863895E-09   6.75885401066073E-17   0.00000000000000E+00   0.00000000000000E+00
      0.00000000000000E+00   0.00000000000000E+00   2.86152872494100E-09   4.34153697943672E-13   2.86196287863895E-09
     -6.75885401066073E-17
      3.77624419983148E-01
     -3.77624419983148E-01  -3.77624419983148E-01   0.00000000000000E+00   0.00000000000000E+00  -4.39286887271208E-09
     -5.68747810601614E-15  -4.39287456019019E-09   6.74780987752049E-17   0.00000000000000E+00   0.00000000000000E+00
      0.00000000000000E+00   0.00000000000000E+00   4.39225065006787E-09   6.23910122308406E-13   4.39287456019018E-09
     -6.74780987752048E-17
      3.90617272139364E-01
     -3.90617272139364E-01  -3.90617272139364E-01   0.00000000000000E+00   0.00000000000000E+00  -6.12201220431546E-09
     -9.40074358782682E-15  -6.12202160505905E-09   6.73747930776033E-17   0.00000000000000E+00   0.00000000000000E+00
      0.00000000000000E+00   0.00000000000000E+00   6.12118783833347E-09   8.33766725583449E-13   6.12202160505906E-09
     -6.73747930776033E-17
      4.02050982036833E-01
     -4.02050982036833E-01  -4.02050982036833E-01   0.00000000000000E+00   0.00000000000000E+00  -8.13441902362672E-09
     -1.46288482028131E-14  -8.13443365247492E-09   6.72692943394622E-17   0.00000000000000E+00   0.00000000000000E+00
      0.00000000000000E+00   0.00000000000000E+00   8.13335633080626E-09   1.07732166866044E-12   8.13443365247492E-09
     -6.72692943394623E-17
      4.12265096211906E-01
     -4.12265096211906E-01  -4.12265096211906E-01   0.00000000000000E+00   0.00000000000000E+00  -1.04225927237831E-08
     -2.17153797027337E-14  -1.04226144391628E-08   6.71604833331067E-17   0.00000000000000E+00   0.00000000000000E+00
      0.00000000000000E+00   0.00000000000000E+00   1.04212572618869E-08   1.35717727592121E-12   1.04226144391628E-08
     -6.71604833331067E-17
      4.21662081252973E-01
     -4.21662081252973E-01  -4.21662081252973E-01   0.00000000000000E+00   0.00000000000000E+00  -1.30294319847359E-08
     -3.12317765897084E-14  -1.30294632165125E-08   6.70455173730841E-17   0.00000000000000E+00   0.00000000000000E+00
      0.00000000000000E+00   0.00000000000000E+00   1.30277803728123E-08   1.68284370024796E-12   1.30294632165125E-08
     -6.70455173730841E-17
      4.39203119996298E-01
     -4.39203119996298E-01  -4.39203119996298E-01   0.00000000000000E+00   0.00000000000000E+00  -1.95391508650268E-08
     -6.15439353874065E-14  -1.95392124089622E-08   6.67824917762489E-17   0.00000000000000E+00   0.00000000000000E+00
      0.00000000000000E+00   0.00000000000000E+00   1.95366727713675E-08   2.53963759466136E-12   1.95392124089622E-08
     -6.67824917762490E-17
      4.46804236785073E-01
     -4.46804236785073E-01  -4.46804236785073E-01   0.00000000000000E+00   0.00000000000000E+00  -2.31898202637005E-08
     -8.25716716902622E-14  -2.31899028353722E-08   6.66442157842677E-17   0.00000000000000E+00   0.00000000000000E+00
      0.00000000000000E+00   0.00000000000000E+00   2.31868510408893E-08   3.05179448288522E-12   2.31899028353722E-08
     -6.66442157842677E-17
      4.60992988124118E-01
     -4.60992988124118E-01  -4.60992988124118E-01   0.00000000000000E+00   0.00000000000000E+00  -3.17280317239787E-08
     -1.42915921122571E-13  -3.17281746398998E-08   6.63360541302606E-17   0.00000000000000E+00   0.00000000000000E+00
      0.00000000000000E+00   0.00000000000000E+00   3.17238267463165E-08   4.34789358324591E-12   3.17281746398998E-08
     -6.63360541302606E-17
      4.73100722600103E-01
     -4.73100722600103E-01  -4.73100722600103E-01   0.00000000000000E+00   0.00000000000000E+00  -4.12185229231943E-08
     -2.28221193305787E-13  -4.12187511443876E-08   6.60096628391282E-17   0.00000000000000E+00   0.00000000000000E+00
      0.00000000000000E+00   0.00000000000000E+00   4.12127919615209E-08   5.95918286678571E-12   4.12187511443876E-08
     -6.60096628391283E-17
      4.83916965398650E-01
     -4.83916965398650E-01  -4.83916965398650E-01   0.00000000000000E+00   0.00000000000000E+00  -5.18652845066409E-08
     -3.46669634949599E-13  -5.18656311762758E-08   6.56564328895139E-17   0.00000000000000E+00   0.00000000000000E+00
      0.00000000000000E+00   0.00000000000000E+00   5.18576422320583E-08   7.98894421764366E-12   5.18656311762759E-08
     -6.56564328895138E-17
      4.93579475632018E-01
     -4.93579475632018E-01  -4.93579475632018E-01   0.00000000000000E+00   0.00000000000000E+00  -6.35006736508563E-08
     -5.03586452607099E-13  -6.35011772373089E-08   6.52812678420013E-17   0.00000000000000E+00   0.00000000000000E+00
      0.00000000000000E+00   0.00000000000000E+00   6.34906952118020E-08   1.04820255070492E-11   6.35011772373090E-08
     -6.52812678420014E-17
      5.11358494461416E-01
     -5.11358494461416E-01  -5.11358494461416E-01   0.00000000000000E+00   0.00000000000000E+00  -9.15937753817880E-08
     -1.00074627313791E-12  -9.15947761280612E-08   6.44071756024417E-17   0.00000000000000E+00   0.00000000000000E+00
      0.00000000000000E+00   0.00000000000000E+00   9.15770688213117E-08   1.77073067495525E-11   9.15947761280612E-08
     -6.44071756024416E-17
      5.18825682369763E-01
     -5.18825682369763E-01  -5.18825682369763E-01   0.00000000000000E+00   0.00000000000000E+00  -1.06607409114123E-07
     -1.33513228945691E-12  -1.06608744246413E-07   6.39536652751987E-17   0.00000000000000E+00   0.00000000000000E+00
      0.00000000000000E+00   0.00000000000000E+00   1.06586467897606E-07   2.22763488073302E-11   1.06608744246413E-07
     -6.39536652751987E-17
      5.32764433132011E-01
     -5.32764433132011E-01  -5.32764433132011E-01   0.00000000000000E+00   0.00000000000000E+00  -1.41131544498627E-07
     -2.28605379483606E-12  -1.41133830552422E-07   6.29381425428751E-17   0.00000000000000E+00   0.00000000000000E+00
      0.00000000000000E+00   0.00000000000000E+00   1.41099158775344E-07   3.46717770778718E-11   1.41133830552422E-07
     -6.29381425428750E-17
      5.45030533802790E-01
     -5.45030533802790E-01  -5.45030533802790E-01   0.00000000000000E+00   0.00000000000000E+00  -1.80170779526632E-07
     -3.66780305151689E-12  -1.80174447329684E-07   6.18277569487036E-17   0.00000000000000E+00   0.00000000000000E+00
      0.00000000000000E+00   0.00000000000000E+00   1.80122565633303E-07   5.18816963811403E-11   1.80174447329684E-07
     -6.18277569487037E-17
      5.55824702393075E-01
     -5.55824702393075E-01  -5.55824702393075E-01   0.00000000000000E+00   0.00000000000000E+00  -2.22960900769254E-07
     -5.55715041937292E-12  -2.22966457919674E-07   6.06500535237227E-17   0.00000000000000E+00   0.00000000000000E+00
      0.00000000000000E+00   0.00000000000000E+00   2.22891796365020E-07   7.46615546535852E-11   2.22966457919673E-07
     -6.06500535237228E-17
      5.65323570752525E-01
     -5.65323570752525E-01  -5.65323570752525E-01   0.00000000000000E+00   0.00000000000000E+00  -2.68602489866517E-07
     -8.00566473164391E-12  -2.68610495531249E-07   5.94343856122971E-17   0.00000000000000E+00   0.00000000000000E+00
      0.00000000000000E+00   0.00000000000000E+00   2.68507002661704E-07   1.03492869544631E-10   2.68610495531249E-07
     -5.94343856122971E-17
      5.74189181221346E-01
     -5.74189181221346E-01  -5.74189181221346E-01   0.00000000000000E+00   0.00000000000000E+00  -3.19266562985100E-07
     -1.12485692246392E-11  -3.19277811554325E-07   5.81298498025759E-17   0.00000000000000E+00   0.00000000000000E+00
      0.00000000000000E+00   0.00000000000000E+00   3.19136817354842E-07   1.40994199482424E-10   3.19277811554324E-07
     -5.81298498025759E-17
      5.82463750992245E-01
     -5.82463750992245E-01  -5.82463750992245E-01   0.00000000000000E+00   0.00000000000000E+00  -3.74811864797779E-07
     -1.54397601156929E-11  -3.74827304557894E-07   5.67501140436066E-17   0.00000000000000E+00   0.00000000000000E+00
      0.00000000000000E+00   0.00000000000000E+00   3.74638534002739E-07   1.88770555154990E-10   3.74827304557894E-07
     -5.67501140436065E-17
      5.97909614564591E-01
     -5.97909614564591E-01  -5.97909614564591E-01   0.00000000000000E+00   0.00000000000000E+00  -5.04468077153487E-07
     -2.78154057721042E-11  -5.04495892559259E-07   5.37173310358338E-17   0.00000000000000E+00   0.00000000000000E+00
      0.00000000000000E+00   0.00000000000000E+00   5.04168429342899E-07   3.27463216361045E-10   5.04495892559260E-07
     -5.37173310358339E-17
      6.09648470879573E-01
     -6.09648470879573E-01  -6.09648470879573E-01   0.00000000000000E+00   0.00000000000000E+00  -6.30835265139623E-07
     -4.33728711185388E-11  -6.30878638010742E-07   5.09902003609114E-17   0.00000000000000E+00   0.00000000000000E+00
      0.00000000000000E+00   0.00000000000000E+00   6.30379353586986E-07   4.99284423754685E-10   6.30878638010741E-07
     -5.09902003609113E-17
      6.19822146352558E-01
     -6.19822146352558E-01  -6.19822146352558E-01   0.00000000000000E+00   0.00000000000000E+00  -7.64263282338837E-07
     -6.35436545934270E-11  -7.64326825993431E-07   4.83291598906805E-17   0.00000000000000E+00   0.00000000000000E+00
      0.00000000000000E+00   0.00000000000000E+00   7.63606866750637E-07   7.19959242794423E-10   7.64326825993431E-07
     -4.83291598906805E-17
      6.29317576794010E-01
     -6.29317576794010E-01  -6.29317576794010E-01   0.00000000000000E+00   0.00000000000000E+00  -9.12398468855264E-07
     -9.04353731004120E-11  -9.12488904228364E-07   4.56097861246873E-17   0.00000000000000E+00   0.00000000000000E+00
      0.00000000000000E+00   0.00000000000000E+00   9.11476791975962E-07   1.01211225240272E-09   9.12488904228365E-07
     -4.56097861246873E-17
      6.38179978539366E-01
     -6.38179978539366E-01  -6.38179978539366E-01   0.00000000000000E+00   0.00000000000000E+00  -1.07424438047037E-06
     -1.25210873930971E-10  -1.07436959134430E-06   4.28902804691807E-17   0.00000000000000E+00   0.00000000000000E+00
      0.00000000000000E+00   0.00000000000000E+00   1.07298172590483E-06   1.38786543946630E-09   1.07436959134430E-06
     -4.28902804691807E-17
      6.46451553501698E-01
     -6.46451553501698E-01  -6.46451553501698E-01   0.00000000000000E+00   0.00000000000000E+00  -1.24833529350183E-06
     -1.68881862959163E-10  -1.24850417536479E-06   4.02244600937204E-17   0.00000000000000E+00   0.00000000000000E+00
      0.00000000000000E+00   0.00000000000000E+00   1.24664645289627E-06   1.85772246851859E-09   1.24850417536479E-06
     -4.02244600937205E-17
      6.54171690133207E-01
     -6.54171690133207E-01  -6.54171690133207E-01   0.00000000000000E+00   0.00000000000000E+00  -1.43279090357834E-06
     -2.22202021285144E-10  -1.43301310559962E-06   3.76582806401320E-17   0.00000000000000E+00   0.00000000000000E+00
      0.00000000000000E+00   0.00000000000000E+00   1.43058365364491E-06   2.42945195471103E-09   1.43301310559962E-06
     -3.76582806401320E-17
      6.61377150989283E-01
     -6.61377150989283E-01  -6.61377150989283E-01   0.00000000000000E+00   0.00000000000000E+00  -1.62540430351479E-06
     -2.85575850207852E-10  -1.62568987936500E-06   3.52277151438160E-17   0.00000000000000E+00   0.00000000000000E+00
      0.00000000000000E+00   0.00000000000000E+00   1.62258274121916E-06   3.10713814584250E-09   1.62568987936500E-06
     -3.52277151438161E-17
      6.68102247788287E-01
     -6.68102247788287E-01  -6.68102247788287E-01   0.00000000000000E+00   0.00000000000000E+00  -1.82375568153294E-06
     -3.58998709978704E-10  -1.82411468024292E-06   3.29580196631696E-17   0.00000000000000E+00   0.00000000000000E+00
      0.00000000000000E+00   0.00000000000000E+00   1.82022411965412E-06   3.89056058880226E-09   1.82411468024292E-06
     -3.29580196631696E-17
      6.74379004800691E-01
     -6.74379004800691E-01  -6.74379004800691E-01   0.00000000000000E+00   0.00000000000000E+00  -2.02533991578640E-06
     -4.42038572430343E-10  -2.02578195435883E-06   3.08641759194002E-17   0.00000000000000E+00   0.00000000000000E+00
      0.00000000000000E+00   0.00000000000000E+00   2.02100694217733E-06   4.77501218149388E-09   2.02578195435883E-06
     -3.08641759194001E-17
      6.80237311345601E-01
     -6.80237311345601E-01  -6.80237311345601E-01   0.00000000000000E+00   0.00000000000000E+00  -2.22769411000326E-06
     -5.33862332627182E-10  -2.22822797233589E-06   2.89521648157099E-17   0.00000000000000E+00   0.00000000000000E+00
      0.00000000000000E+00   0.00000000000000E+00   2.22247638796838E-06   5.75158436751141E-09   2.22822797233589E-06
     -2.89521648157099E-17
      6.91329038403965E-01
     -6.91329038403965E-01  -6.91329038403965E-01   0.00000000000000E+00   0.00000000000000E+00  -2.64635785551160E-06
     -7.50445931342138E-10  -2.64710830144294E-06   2.55076849874269E-17   0.00000000000000E+00   0.00000000000000E+00
      0.00000000000000E+00   0.00000000000000E+00   2.63905740396326E-06   8.05089747968232E-09   2.64710830144294E-06
     -2.55076849874269E-17
      7.01385537603547E-01
     -7.01385537603547E-01  -7.01385537603547E-01   0.00000000000000E+00   0.00000000000000E+00  -3.06074724422538E-06
     -9.99547439359059E-10  -3.06174679166474E-06   2.26546820088445E-17   0.00000000000000E+00   0.00000000000000E+00
      0.00000000000000E+00   0.00000000000000E+00   3.05105610863959E-06   1.06906830251486E-08   3.06174679166474E-06
     -2.26546820088444E-17
      7.10771603523158E-01
     -7.10771603523158E-01  -7.10771603523158E-01   0.00000000000000E+00   0.00000000000000E+00  -3.46920469449964E-06
     -1.27813543874753E-09  -3.47048282993839E-06   2.02733538812217E-17   0.00000000000000E+00   0.00000000000000E+00
      0.00000000000000E+00   0.00000000000000E+00   3.45684381640923E-06   1.36390135291566E-08   3.47048282993839E-06
     -2.02733538812217E-17
      7.19531931714795E-01
     -7.19531931714795E-01  -7.19531931714795E-01   0.00000000000000E+00   0.00000000000000E+00  -3.86064562500273E-06
     -1.57513354240459E-09  -3.86222075854513E-06   1.83162400509244E-17   0.00000000000000E+00   0.00000000000000E+00
      0.00000000000000E+00   0.00000000000000E+00   3.84544176721621E-06   1.67789913289251E-08   3.86222075854513E-06
     -1.83162400509244E-17
      7.27708238026989E-01
     -7.27708238026989E-01  -7.27708238026989E-01   0.00000000000000E+00   0.00000000000000E+00  -4.22696355391569E-06
     -1.87893194536927E-09  -4.22884248586106E-06   1.67225357082414E-17   0.00000000000000E+00   0.00000000000000E+00
      0.00000000000000E+00   0.00000000000000E+00   4.20885413467843E-06   1.99883511826378E-08   4.22884248586107E-06
     -1.67225357082414E-17
      7.35339457251703E-01
     -7.35339457251703E-01  -7.35339457251703E-01   0.00000000000000E+00   0.00000000000000E+00  -4.56331152462687E-06
     -2.17921005654074E-09  -4.56549073468341E-06   1.54298268555686E-17   0.00000000000000E+00   0.00000000000000E+00
      0.00000000000000E+00   0.00000000000000E+00   4.54233215093093E-06   2.31585837524749E-08   4.56549073468341E-06
     -1.54298268555686E-17
      7.42461928528103E-01
     -7.42461928528103E-01  -7.42461928528103E-01   0.00000000000000E+00   0.00000000000000E+00  -4.86774719638438E-06
     -2.46800607568814E-09  -4.87021520246007E-06   1.43809260114258E-17   0.00000000000000E+00   0.00000000000000E+00
      0.00000000000000E+00   0.00000000000000E+00   4.84400908442750E-06   2.62061180325692E-08   4.87021520246007E-06
     -1.43809260114258E-17
      7.49109568386077E-01
     -7.49109568386077E-01  -7.49109568386077E-01   0.00000000000000E+00   0.00000000000000E+00  -5.14054070065970E-06
     -2.74000193305997E-09  -5.14328070259276E-06   1.35268650321672E-17   0.00000000000000E+00   0.00000000000000E+00
      0.00000000000000E+00   0.00000000000000E+00   5.11420544791226E-06   2.90752546804999E-08   5.14328070259276E-06
     -1.35268650321672E-17
      7.55314032253519E-01
     -7.55314032253519E-01  -7.55314032253519E-01   0.00000000000000E+00   0.00000000000000E+00  -5.38341891079915E-06
     -2.99225753816624E-09  -5.38641116833732E-06   1.28274523466990E-17   0.00000000000000E+00   0.00000000000000E+00
      0.00000000000000E+00   0.00000000000000E+00   5.35467584457566E-06   3.17353237616581E-08   5.38641116833732E-06
     -1.28274523466990E-17
      7.61187591381364E-01
     -7.61187591381364E-01  -7.61187591381364E-01   0.00000000000000E+00   0.00000000000000E+00  -5.60191232013588E-06
     -3.22695288044567E-09  -5.60513927301633E-06   1.22428078595538E-17   0.00000000000000E+00   0.00000000000000E+00
      0.00000000000000E+00   0.00000000000000E+00   5.57092970278576E-06   3.42095702305726E-08   5.60513927301633E-06
     -1.22428078595538E-17
      7.72464824906827E-01
     -7.72464824906827E-01  -7.72464824906827E-01   0.00000000000000E+00   0.00000000000000E+00  -5.98885935878706E-06
     -3.65952389220736E-09  -5.99251888267927E-06   1.13004509834390E-17   0.00000000000000E+00   0.00000000000000E+00
      0.00000000000000E+00   0.00000000000000E+00   5.95375043932923E-06   3.87684433500489E-08   5.99251888267927E-06
     -1.13004509834390E-17
      7.82839879750252E-01
     -7.82839879750252E-01  -7.82839879750252E-01   0.00000000000000E+00   0.00000000000000E+00  -6.30763511272004E-06
     -4.03075827612341E-09  -6.31166587099616E-06   1.06040358375726E-17   0.00000000000000E+00   0.00000000000000E+00
      0.00000000000000E+00   0.00000000000000E+00   6.26898632693712E-06   4.26795440590353E-08   6.31166587099616E-06
     -1.06040358375726E-17
      7.92523264270783E-01
     -7.92523264270783E-01  -7.92523264270783E-01   0.00000000000000E+00   0.00000000000000E+00  -6.57548424626236E-06
     -4.35187737547234E-09  -6.57983612363783E-06   1.00687359861869E-17   0.00000000000000E+00   0.00000000000000E+00
      0.00000000000000E+00   0.00000000000000E+00   6.53377437132766E-06   4.60617523101631E-08   6.57983612363783E-06
     -1.00687359861869E-17
      8.01561089823278E-01