DF-ISE text

Info {
  version   = 1.0
  type      = xyplot
  datasets  = [
    "time"
    "top OuterVoltage" "top InnerVoltage" "top QuasiFermiPotential" "top DisplacementCurrent" "top eCurrent"
    "top hCurrent" "top TotalCurrent" "top Charge" "bottom OuterVoltage" "bottom InnerVoltage"
    "bottom QuasiFermiPotential" "bottom DisplacementCurrent" "bottom eCurrent" "bottom hCurrent" "bottom TotalCurrent"
    "bottom Charge" ]
  functions = [
    Time
    OuterVoltage InnerVoltage QuasiFermiPotential DisplacementCurrent eCurrent
    hCurrent TotalCurrent Charge OuterVoltage InnerVoltage
    QuasiFermiPotential DisplacementCurrent eCurrent hCurrent TotalCurrent
    Charge ]
}

Data {
      0.00000000000000E+00
      0.00000000000000E+00   0.00000000000000E+00   0.00000000000000E+00   0.00000000000000E+00   6.34394898252707E-22
     -2.05254887954284E-31   6.34394898047452E-22   1.06031414615236E-16   0.00000000000000E+00   0.00000000000000E+00
      0.00000000000000E+00   0.00000000000000E+00  -6.34394898297092E-22   2.49643621086253E-31  -6.34394898047448E-22
     -1.06031414615236E-16
      0.00000000000000E+00
      0.00000000000000E+00   0.00000000000000E+00   0.00000000000000E+00   0.00000000000000E+00  -6.47634268744454E-18
      1.23225057411385E-29  -6.47634268743222E-18   1.06031396517841E-16   0.00000000000000E+00   0.00000000000000E+00
      0.00000000000000E+00   0.00000000000000E+00   6.47634269047528E-18  -3.04307940877555E-27   6.47634268743220E-18
     -1.06031396517841E-16
      1.00000000000000E-02
     -1.00000000000000E-02  -1.00000000000000E-02   0.00000000000000E+00   0.00000000000000E+00  -1.76485174612300E-16
     -1.28861380951812E-21  -1.76486463226110E-16   1.05787817958504E-16   0.00000000000000E+00   0.00000000000000E+00
      0.00000000000000E+00   0.00000000000000E+00   1.64677710843249E-16   1.18087523828612E-17   1.76486463226110E-16
     -1.05787817958504E-16
      2.89333333333333E-02
     -2.89333333333333E-02  -2.89333333333333E-02   0.00000000000000E+00   0.00000000000000E+00  -7.43243590759489E-16
     -7.26623272924891E-21  -7.43250856992218E-16   1.05325833287118E-16   0.00000000000000E+00   0.00000000000000E+00
      0.00000000000000E+00   0.00000000000000E+00   7.02496143706186E-16   4.07547132860325E-17   7.43250856992218E-16
     -1.05325833287118E-16
      4.63520000000000E-02
     -4.63520000000000E-02  -4.63520000000000E-02   0.00000000000000E+00   0.00000000000000E+00  -1.74914712872938E-15
      1.43395011726018E-19  -1.74900373371765E-15   1.04899863438994E-16   0.00000000000000E+00   0.00000000000000E+00
      0.00000000000000E+00   0.00000000000000E+00   1.67085816546085E-15   7.81455682568002E-17   1.74900373371765E-15
     -1.04899863438994E-16
      6.23771733333333E-02
     -6.23771733333333E-02  -6.23771733333333E-02   0.00000000000000E+00   0.00000000000000E+00  -3.45734744784953E-15
     -2.74809379099895E-20  -3.45737492878744E-15   1.04507163931069E-16   0.00000000000000E+00   0.00000000000000E+00
      0.00000000000000E+00   0.00000000000000E+00   3.33120083208527E-15   1.26174096702171E-16   3.45737492878744E-15
     -1.04507163931069E-16
      7.71203328000000E-02
     -7.71203328000000E-02  -7.71203328000000E-02   0.00000000000000E+00   0.00000000000000E+00  -6.23299978242228E-15
     -5.04727230646818E-20  -6.23305025514534E-15   1.04145190705250E-16   0.00000000000000E+00   0.00000000000000E+00
      0.00000000000000E+00   0.00000000000000E+00   6.04656415162768E-15   1.86486103517673E-16   6.23305025514535E-15
     -1.04145190705250E-16
      9.06840395093333E-02
     -9.06840395093333E-02  -9.06840395093333E-02   0.00000000000000E+00   0.00000000000000E+00  -1.05529538201437E-14
     -8.67494931853791E-20  -1.05530405696369E-14   1.03811586706651E-16   0.00000000000000E+00   0.00000000000000E+00
      0.00000000000000E+00   0.00000000000000E+00   1.02921583582819E-14   2.60882211355003E-16   1.05530405696369E-14
     -1.03811586706651E-16
      1.03343499104711E-01
     -1.03343499104711E-01  -1.03343499104711E-01   0.00000000000000E+00   0.00000000000000E+00  -1.71262322357185E-14
     -1.42557834821371E-19  -1.71263747935533E-14   1.03499710258125E-16   0.00000000000000E+00   0.00000000000000E+00
      0.00000000000000E+00   0.00000000000000E+00   1.67740447851644E-14   3.52330008388833E-16   1.71263747935533E-14
     -1.03499710258125E-16
      1.14990201932459E-01
     -1.14990201932459E-01  -1.14990201932459E-01   0.00000000000000E+00   0.00000000000000E+00  -2.66447254681009E-14
     -2.24132028683200E-19  -2.66449496001296E-14   1.03212343860060E-16   0.00000000000000E+00   0.00000000000000E+00
      0.00000000000000E+00   0.00000000000000E+00   2.61837683020270E-14   4.61181298102612E-16   2.66449496001296E-14
     -1.03212343860060E-16
      1.25860457905023E-01
     -1.25860457905023E-01  -1.25860457905023E-01   0.00000000000000E+00   0.00000000000000E+00  -4.01794904961127E-14
     -3.41100660322444E-19  -4.01798315967730E-14   1.02943752538178E-16   0.00000000000000E+00   0.00000000000000E+00
      0.00000000000000E+00   0.00000000000000E+00   3.95894342990400E-14   5.90397297733032E-16   4.01798315967730E-14
     -1.02943752538178E-16
      1.46441475879745E-01
     -1.46441475879745E-01  -1.46441475879745E-01   0.00000000000000E+00   0.00000000000000E+00  -8.72401068913250E-14
     -7.53200815428857E-19  -8.72408600921404E-14   1.02434200855162E-16   0.00000000000000E+00   0.00000000000000E+00
      0.00000000000000E+00   0.00000000000000E+00   8.63049714210941E-14   9.35888671046496E-16   8.72408600921406E-14
     -1.02434200855162E-16
      1.63180703832519E-01
     -1.63180703832519E-01  -1.63180703832519E-01   0.00000000000000E+00   0.00000000000000E+00  -1.63725471294481E-13
     -1.43368174582625E-18  -1.63726904976227E-13   1.02018775302597E-16   0.00000000000000E+00   0.00000000000000E+00
      0.00000000000000E+00   0.00000000000000E+00   1.62370254015585E-13   1.35665096064136E-15   1.63726904976227E-13
     -1.02018775302597E-16
      1.78580793549071E-01
     -1.78580793549071E-01  -1.78580793549071E-01   0.00000000000000E+00   0.00000000000000E+00  -2.92084400731268E-13
     -2.59333456312378E-18  -2.92086994065831E-13   1.01635793402924E-16   0.00000000000000E+00   0.00000000000000E+00
      0.00000000000000E+00   0.00000000000000E+00   2.90179037006635E-13   1.90795705919597E-15   2.92086994065831E-13
     -1.01635793402924E-16
      1.92748876088298E-01
     -1.92748876088298E-01  -1.92748876088298E-01   0.00000000000000E+00   0.00000000000000E+00  -4.97444896805131E-13
     -4.47694932929543E-18  -4.97449373754461E-13   1.01282776576797E-16   0.00000000000000E+00   0.00000000000000E+00
      0.00000000000000E+00   0.00000000000000E+00   4.94836120958406E-13   2.61325279605475E-15   4.97449373754461E-13
     -1.01282776576797E-16
      2.05783512024388E-01
     -2.05783512024388E-01  -2.05783512024388E-01   0.00000000000000E+00   0.00000000000000E+00  -8.11814440712340E-13
     -7.40256830834623E-18  -8.11821843280648E-13   1.00957427223139E-16   0.00000000000000E+00   0.00000000000000E+00
      0.00000000000000E+00   0.00000000000000E+00   8.08325902970750E-13   3.49594030989730E-15   8.11821843280647E-13
     -1.00957427223139E-16
      2.17775377085590E-01
     -2.17775377085590E-01  -2.17775377085590E-01   0.00000000000000E+00   0.00000000000000E+00  -1.27389122022080E-12
     -1.17670172736184E-17  -1.27390298723808E-12   1.00657616575138E-16   0.00000000000000E+00   0.00000000000000E+00
      0.00000000000000E+00   0.00000000000000E+00   1.26932458965810E-12   4.57839757997982E-15   1.27390298723808E-12
     -1.00657616575138E-16
      2.28967784476046E-01
     -2.28967784476046E-01  -2.28967784476046E-01   0.00000000000000E+00   0.00000000000000E+00  -1.93972529400023E-12
     -1.81266386153457E-17  -1.93974342063885E-12   1.00377366795628E-16   0.00000000000000E+00   0.00000000000000E+00
      0.00000000000000E+00   0.00000000000000E+00   1.93384098392383E-12   5.90243671501531E-15   1.93974342063885E-12
     -1.00377366795629E-16
      2.49860278271563E-01
     -2.49860278271563E-01  -2.49860278271563E-01   0.00000000000000E+00   0.00000000000000E+00  -4.25126746976655E-12
     -4.06449993265664E-17  -4.25130811476588E-12   9.98531167443048E-17   0.00000000000000E+00   0.00000000000000E+00
      0.00000000000000E+00   0.00000000000000E+00   4.24175450801746E-12   9.55360674841891E-15   4.25130811476588E-12
     -9.98531167443048E-17
      2.67688539643737E-01
     -2.67688539643737E-01  -2.67688539643737E-01   0.00000000000000E+00   0.00000000000000E+00  -8.30185473057783E-12
     -8.09851106841438E-17  -8.30193571568851E-12   9.94045785496141E-17   0.00000000000000E+00   0.00000000000000E+00
      0.00000000000000E+00   0.00000000000000E+00   8.28738977406466E-12   1.45459416238626E-14   8.30193571568852E-12
     -9.94045785496139E-17
      2.83852829954509E-01
     -2.83852829954509E-01  -2.83852829954509E-01   0.00000000000000E+00   0.00000000000000E+00  -1.52243401812312E-11
     -1.51322184935649E-16  -1.52244915034162E-11   9.89969253856416E-17   0.00000000000000E+00   0.00000000000000E+00
      0.00000000000000E+00   0.00000000000000E+00   1.52029995176558E-11   2.14919857603764E-14   1.52244915034162E-11
     -9.89969253856417E-17
      2.98508453169608E-01
     -2.98508453169608E-01  -2.98508453169608E-01   0.00000000000000E+00   0.00000000000000E+00  -2.63714871951248E-11
     -2.66734625868972E-16  -2.63717539297507E-11   9.86264627900950E-17   0.00000000000000E+00   0.00000000000000E+00
      0.00000000000000E+00   0.00000000000000E+00   2.63408640591879E-11   3.08898705627633E-14   2.63717539297507E-11
     -9.86264627900949E-17
      3.11600809908431E-01
     -3.11600809908431E-01  -3.11600809908431E-01   0.00000000000000E+00   0.00000000000000E+00  -4.30607692369776E-11
     -4.42594552351078E-16  -4.30612118315299E-11   9.82947619107192E-17   0.00000000000000E+00   0.00000000000000E+00
      0.00000000000000E+00   0.00000000000000E+00   4.30181580915417E-11   4.30537399882472E-14   4.30612118315299E-11
     -9.82947619107190E-17
      3.23645778108147E-01
     -3.23645778108147E-01  -3.23645778108147E-01   0.00000000000000E+00   0.00000000000000E+00  -6.75738124265770E-11
     -7.05249266283185E-16  -6.75745176758433E-11   9.79888882878765E-17   0.00000000000000E+00   0.00000000000000E+00
      0.00000000000000E+00   0.00000000000000E+00   6.75156582250511E-11   5.88594507921316E-14   6.75745176758432E-11
     -9.79888882878765E-17
      3.34727148851886E-01
     -3.34727148851886E-01  -3.34727148851886E-01   0.00000000000000E+00   0.00000000000000E+00  -1.02231989454644E-10
     -1.08267881567513E-15  -1.02233072133460E-10   9.77067876425719E-17   0.00000000000000E+00   0.00000000000000E+00
      0.00000000000000E+00   0.00000000000000E+00   1.02154078573986E-10   7.89935594734493E-14   1.02233072133460E-10
     -9.77067876425718E-17
      3.55412374240199E-01
     -3.55412374240199E-01  -3.55412374240199E-01   0.00000000000000E+00   0.00000000000000E+00  -2.21007416027781E-10
     -2.40979649771003E-15  -2.21009825824278E-10   9.71779055300603E-17   0.00000000000000E+00   0.00000000000000E+00
      0.00000000000000E+00   0.00000000000000E+00   2.20870592432573E-10   1.39233391705316E-13   2.21009825824278E-10
     -9.71779055300601E-17
      3.73339569576737E-01
     -3.73339569576737E-01  -3.73339569576737E-01   0.00000000000000E+00   0.00000000000000E+00  -4.29842369572033E-10
     -4.82097910086766E-15  -4.29847190551134E-10   9.67160556375033E-17   0.00000000000000E+00   0.00000000000000E+00
      0.00000000000000E+00   0.00000000000000E+00   4.29615306659896E-10   2.31883891237425E-13   4.29847190551133E-10
     -9.67160556375033E-17
      3.87203267303660E-01
     -3.87203267303660E-01  -3.87203267303660E-01   0.00000000000000E+00   0.00000000000000E+00  -7.16952084900300E-10
     -8.24190153433733E-15  -7.16960326801834E-10   9.63554083105080E-17   0.00000000000000E+00   0.00000000000000E+00
      0.00000000000000E+00   0.00000000000000E+00   7.16612270773535E-10   3.48056028298658E-13   7.16960326801833E-10
     -9.63554083105082E-17
      3.99588170606378E-01
     -3.99588170606378E-01  -3.99588170606378E-01   0.00000000000000E+00   0.00000000000000E+00  -1.12892639876847E-09
     -1.33068820259690E-14  -1.12893970565050E-09   9.60292998612517E-17   0.00000000000000E+00   0.00000000000000E+00
      0.00000000000000E+00   0.00000000000000E+00   1.12843543715411E-09   5.04268496390413E-13   1.12893970565050E-09
     -9.60292998612519E-17
      4.10982281644878E-01
     -4.10982281644878E-01  -4.10982281644878E-01   0.00000000000000E+00   0.00000000000000E+00  -1.70836140578388E-09
     -2.06766334078972E-14  -1.70838208241729E-09   9.57244732552818E-17   0.00000000000000E+00   0.00000000000000E+00
      0.00000000000000E+00   0.00000000000000E+00   1.70766867352258E-09   7.13408894704476E-13   1.70838208241729E-09
     -9.57244732552817E-17
      4.21616785280812E-01
     -4.21616785280812E-01  -4.21616785280812E-01   0.00000000000000E+00   0.00000000000000E+00  -2.50497444335609E-09
     -3.11975354040464E-14  -2.50500564089149E-09   9.54340299725482E-17   0.00000000000000E+00   0.00000000000000E+00
      0.00000000000000E+00   0.00000000000000E+00   2.50401519714778E-09   9.90443743713269E-13   2.50500564089149E-09
     -9.54340299725483E-17
      4.41467858734554E-01
     -4.41467858734554E-01  -4.41467858734554E-01   0.00000000000000E+00   0.00000000000000E+00  -5.04725261100015E-09
     -6.72315017732244E-14  -5.04731984250192E-09   9.48680160024947E-17   0.00000000000000E+00   0.00000000000000E+00
      0.00000000000000E+00   0.00000000000000E+00   5.04547757006654E-09   1.84227243537671E-12   5.04731984250192E-09
     -9.48680160024947E-17
      4.50069990564509E-01
     -4.50069990564509E-01  -4.50069990564509E-01   0.00000000000000E+00   0.00000000000000E+00  -6.78782150999203E-09
     -9.37699725853006E-14  -6.78791527996461E-09   9.46085222418203E-17   0.00000000000000E+00   0.00000000000000E+00
      0.00000000000000E+00   0.00000000000000E+00   6.78549927818767E-09   2.41600177694342E-12   6.78791527996461E-09
     -9.46085222418201E-17
      4.58098646939134E-01
     -4.58098646939134E-01  -4.58098646939134E-01   0.00000000000000E+00   0.00000000000000E+00  -8.90648349285713E-09
     -1.27913995683049E-13  -8.90661140685281E-09   9.43554349589964E-17   0.00000000000000E+00   0.00000000000000E+00
      0.00000000000000E+00   0.00000000000000E+00   8.90349751913738E-09   3.11388771544206E-12   8.90661140685282E-09
     -9.43554349589962E-17
      4.65592059555451E-01
     -4.65592059555451E-01  -4.65592059555451E-01   0.00000000000000E+00   0.00000000000000E+00  -1.14222451186238E-08
     -1.70914073974852E-13  -1.14224160326978E-08   9.41074121816519E-17   0.00000000000000E+00   0.00000000000000E+00
      0.00000000000000E+00   0.00000000000000E+00   1.14184681862415E-08   3.94784645628950E-12   1.14224160326978E-08
     -9.41074121816518E-17
      4.72585911330679E-01
     -4.72585911330679E-01  -4.72585911330679E-01   0.00000000000000E+00   0.00000000000000E+00  -1.43428692644038E-08
     -2.23997163945667E-13  -1.43430932615678E-08   9.38634166903301E-17   0.00000000000000E+00   0.00000000000000E+00
      0.00000000000000E+00   0.00000000000000E+00   1.43381649420784E-08   4.92831948937923E-12   1.43430932615678E-08
     -9.38634166903302E-17
      4.85641101311106E-01
     -4.85641101311106E-01  -4.85641101311106E-01   0.00000000000000E+00   0.00000000000000E+00  -2.16656274323343E-08
     -3.71104027032204E-13  -2.16659985363613E-08   9.33672854474201E-17   0.00000000000000E+00   0.00000000000000E+00
      0.00000000000000E+00   0.00000000000000E+00   2.16585338609885E-08   7.46467537269694E-12   2.16659985363612E-08
     -9.33672854474202E-17
      4.96955599294143E-01
     -4.96955599294143E-01  -4.96955599294143E-01   0.00000000000000E+00   0.00000000000000E+00  -3.05485233564753E-08
     -5.74772034061512E-13  -3.05490981285093E-08   9.28824719887142E-17   0.00000000000000E+00   0.00000000000000E+00
      0.00000000000000E+00   0.00000000000000E+00   3.05383808656739E-08   1.07172628353642E-11   3.05490981285093E-08
     -9.28824719887139E-17
      5.07364937438537E-01
     -5.07364937438537E-01  -5.07364937438537E-01   0.00000000000000E+00   0.00000000000000E+00  -4.14236504506289E-08
     -8.59556770351896E-13  -4.14245100073992E-08   9.23784234381596E-17   0.00000000000000E+00   0.00000000000000E+00
      0.00000000000000E+00   0.00000000000000E+00   4.14095250156170E-08   1.49849917822029E-11   4.14245100073992E-08
     -9.23784234381595E-17
      5.16941528531379E-01
     -5.16941528531379E-01  -5.16941528531379E-01   0.00000000000000E+00   0.00000000000000E+00  -5.42946037604891E-08
     -1.24465272244672E-12  -5.42958484132115E-08   9.18536659825576E-17   0.00000000000000E+00   0.00000000000000E+00
      0.00000000000000E+00   0.00000000000000E+00   5.42753913256289E-08   2.04570875826509E-11   5.42958484132116E-08
     -9.18536659825577E-17
      5.25879680218032E-01
     -5.25879680218032E-01  -5.25879680218032E-01   0.00000000000000E+00   0.00000000000000E+00  -6.93384454317395E-08
     -1.75824061378228E-12  -6.93402036723533E-08   9.12999388281466E-17   0.00000000000000E+00   0.00000000000000E+00
      0.00000000000000E+00   0.00000000000000E+00   6.93127639532300E-08   2.74397191233517E-11   6.93402036723534E-08
     -9.12999388281465E-17
      5.34221955125574E-01
     -5.34221955125574E-01  -5.34221955125574E-01   0.00000000000000E+00   0.00000000000000E+00  -8.65490642943915E-08
     -2.42705055393444E-12  -8.65514913449454E-08   9.07169643605105E-17   0.00000000000000E+00   0.00000000000000E+00
      0.00000000000000E+00   0.00000000000000E+00   8.65152855241159E-08   3.62058208296842E-11   8.65514913449456E-08
     -9.07169643605106E-17
      5.49794201619654E-01
     -5.49794201619654E-01  -5.49794201619654E-01   0.00000000000000E+00   0.00000000000000E+00  -1.28899579788925E-07
     -4.42912966543439E-12  -1.28904008918591E-07   8.94190742432930E-17   0.00000000000000E+00   0.00000000000000E+00
      0.00000000000000E+00   0.00000000000000E+00   1.28842716086435E-07   6.12928321559896E-11   1.28904008918591E-07
     -8.94190742432927E-17
      5.61213849048645E-01
     -5.61213849048645E-01  -5.61213849048645E-01   0.00000000000000E+00   0.00000000000000E+00  -1.70647344023581E-07
     -6.88315581463938E-12  -1.70654227179395E-07   8.82533715837919E-17   0.00000000000000E+00   0.00000000000000E+00
      0.00000000000000E+00   0.00000000000000E+00   1.70563361363293E-07   9.08658161020207E-11   1.70654227179395E-07
     -8.82533715837918E-17
      5.71719924683318E-01
     -5.71719924683318E-01  -5.71719924683318E-01   0.00000000000000E+00   0.00000000000000E+00  -2.19234043618595E-07
     -1.03235606087895E-11  -2.19244367179204E-07   8.69839329957456E-17   0.00000000000000E+00   0.00000000000000E+00
      0.00000000000000E+00   0.00000000000000E+00   2.19113108430735E-07   1.31258748469395E-10   2.19244367179204E-07
     -8.69839329957457E-17
      5.81525595275678E-01
     -5.81525595275678E-01  -5.81525595275678E-01   0.00000000000000E+00   0.00000000000000E+00  -2.75377702580097E-07
     -1.50664272590756E-11  -2.75392769007356E-07   8.55978104813625E-17   0.00000000000000E+00   0.00000000000000E+00
      0.00000000000000E+00   0.00000000000000E+00   2.75206925319802E-07   1.85843687554182E-10   2.75392769007356E-07
     -8.55978104813624E-17
      5.90677554495215E-01
     -5.90677554495215E-01  -5.90677554495215E-01   0.00000000000000E+00   0.00000000000000E+00  -3.39135351097461E-07
     -2.14340789429861E-11  -3.39156785176404E-07   8.41013123861701E-17   0.00000000000000E+00   0.00000000000000E+00
      0.00000000000000E+00   0.00000000000000E+00   3.38898784689097E-07   2.58000487306041E-10   3.39156785176403E-07
     -8.41013123861701E-17
      5.99219383100116E-01
     -5.99219383100116E-01  -5.99219383100116E-01   0.00000000000000E+00   0.00000000000000E+00  -4.10428543226647E-07
     -2.97739839095610E-11  -4.10458317210556E-07   8.25043686706802E-17   0.00000000000000E+00   0.00000000000000E+00
      0.00000000000000E+00   0.00000000000000E+00   4.10106953362515E-07   3.51363848040854E-10   4.10458317210556E-07
     -8.25043686706801E-17
      6.07191756464690E-01
     -6.07191756464690E-01  -6.07191756464690E-01   0.00000000000000E+00   0.00000000000000E+00  -4.89047103301570E-07
     -4.04467052610747E-11  -4.89087550006831E-07   8.08199657996367E-17   0.00000000000000E+00   0.00000000000000E+00
      0.00000000000000E+00   0.00000000000000E+00   4.88617853120407E-07   4.69696886423130E-10   4.89087550006830E-07
     -8.08199657996367E-17
      6.14632638271626E-01
     -6.14632638271626E-01  -6.14632638271626E-01   0.00000000000000E+00   0.00000000000000E+00  -5.74657122785312E-07
     -5.38116293572355E-11  -5.74710934414669E-07   7.90634375392644E-17   0.00000000000000E+00   0.00000000000000E+00
      0.00000000000000E+00   0.00000000000000E+00   5.74094192555054E-07   6.16741859614523E-10   5.74710934414668E-07
     -7.90634375392643E-17
      6.21577461291433E-01
     -6.21577461291433E-01  -6.21577461291433E-01   0.00000000000000E+00   0.00000000000000E+00  -6.66812789297900E-07
     -7.02114775061391E-11  -6.66883000775406E-07   7.72516739221830E-17   0.00000000000000E+00   0.00000000000000E+00
      0.00000000000000E+00   0.00000000000000E+00   6.66086942272913E-07   7.96058502492977E-10   6.66883000775406E-07
     -7.72516739221830E-17
      6.28059296109920E-01
     -6.28059296109920E-01  -6.28059296109920E-01   0.00000000000000E+00   0.00000000000000E+00  -7.64971315621980E-07
     -8.99567387558738E-11  -7.65061272360736E-07   7.54023160097547E-17   0.00000000000000E+00   0.00000000000000E+00
      0.00000000000000E+00   0.00000000000000E+00   7.64050410601300E-07   1.01086175943476E-09   7.65061272360735E-07
     -7.54023160097546E-17
      6.40158721104428E-01
     -6.40158721104428E-01  -6.40158721104428E-01   0.00000000000000E+00   0.00000000000000E+00  -9.84937120433561E-07
     -1.42649526298462E-10  -9.85079769959859E-07   7.15221906257766E-17   0.00000000000000E+00   0.00000000000000E+00
      0.00000000000000E+00   0.00000000000000E+00   9.83499196718559E-07   1.58057324129970E-09   9.85079769959859E-07
     -7.15221906257767E-17
      6.51290192099375E-01
     -6.51290192099375E-01  -6.51290192099375E-01   0.00000000000000E+00   0.00000000000000E+00  -1.23789374515333E-06
     -2.17514906030809E-10  -1.23811126005936E-06   6.74507603007318E-17   0.00000000000000E+00   0.00000000000000E+00
      0.00000000000000E+00   0.00000000000000E+00   1.23572614922690E-06   2.38511083245727E-09   1.23811126005936E-06
     -6.74507603007318E-17
      6.61679565027993E-01
     -6.61679565027993E-01  -6.61679565027993E-01   0.00000000000000E+00   0.00000000000000E+00  -1.52721775891634E-06
     -3.21609689429189E-10  -1.52753936860577E-06   6.32307710376119E-17   0.00000000000000E+00   0.00000000000000E+00
      0.00000000000000E+00   0.00000000000000E+00   1.52404065489655E-06   3.49871370921604E-09   1.52753936860576E-06
     -6.32307710376118E-17
      6.71376313094702E-01
     -6.71376313094702E-01  -6.71376313094702E-01   0.00000000000000E+00   0.00000000000000E+00  -1.85250416526052E-06
     -4.61860999102966E-10  -1.85296602625962E-06   5.89627880768940E-17   0.00000000000000E+00   0.00000000000000E+00
      0.00000000000000E+00   0.00000000000000E+00   1.84797206108425E-06   4.99396517537007E-09   1.85296602625962E-06
     -5.89627880768940E-17
      6.80426611290298E-01
     -6.80426611290298E-01  -6.80426611290298E-01   0.00000000000000E+00   0.00000000000000E+00  -2.21230714448416E-06
     -6.45231498610307E-10  -2.21295237598277E-06   5.47441919208169E-17   0.00000000000000E+00   0.00000000000000E+00
      0.00000000000000E+00   0.00000000000000E+00   2.20600863459507E-06   6.94374138770132E-09   2.21295237598277E-06
     -5.47441919208170E-17
      6.88873556272854E-01
     -6.88873556272854E-01  -6.88873556272854E-01   0.00000000000000E+00   0.00000000000000E+00  -2.60415330419553E-06
     -8.78197280995855E-10  -2.60503150147652E-06   5.06610503179218E-17   0.00000000000000E+00   0.00000000000000E+00
      0.00000000000000E+00   0.00000000000000E+00   2.59561576297436E-06   9.41573850215820E-09   2.60503150147652E-06
     -5.06610503179218E-17
      6.96757371589906E-01
     -6.96757371589906E-01  -6.96757371589906E-01   0.00000000000000E+00   0.00000000000000E+00  -3.02462354505776E-06
     -1.16619382018914E-09  -3.02578973887794E-06   4.67825605369575E-17   0.00000000000000E+00   0.00000000000000E+00
      0.00000000000000E+00   0.00000000000000E+00   3.01332306832240E-06   1.24666705555399E-08   3.02578973887794E-06
     -4.67825605369575E-17
      7.04115599219155E-01
     -7.04115599219155E-01  -7.04115599219155E-01   0.00000000000000E+00   0.00000000000000E+00  -3.46949973543036E-06
     -1.51310382567550E-09  -3.47101283925603E-06   4.31584818255248E-17   0.00000000000000E+00   0.00000000000000E+00
      0.00000000000000E+00   0.00000000000000E+00   3.45487592736999E-06   1.61369118860418E-08   3.47101283925604E-06
     -4.31584818255248E-17
      7.10983278339787E-01
     -7.10983278339787E-01  -7.10983278339787E-01   0.00000000000000E+00   0.00000000000000E+00  -3.93396405054388E-06
     -1.92086055390035E-09  -3.93588491109778E-06   3.98192815818358E-17   0.00000000000000E+00   0.00000000000000E+00
      0.00000000000000E+00   0.00000000000000E+00   3.91543855681168E-06   2.04463542861028E-08   3.93588491109778E-06
     -3.98192815818358E-17
      7.23802946031634E-01
     -7.23802946031634E-01  -7.23802946031634E-01   0.00000000000000E+00   0.00000000000000E+00  -4.93719033439178E-06
     -2.95699925204950E-09  -4.94014733364383E-06   3.38430878911034E-17   0.00000000000000E+00   0.00000000000000E+00
      0.00000000000000E+00   0.00000000000000E+00   4.90876416082464E-06   3.13831728192042E-08   4.94014733364384E-06
     -3.38430878911034E-17
      7.35767969210691E-01
     -7.35767969210691E-01  -7.35767969210691E-01   0.00000000000000E+00   0.00000000000000E+00  -6.04004977098643E-06
     -4.33410142543763E-09  -6.04438387241186E-06   2.87422998839361E-17   0.00000000000000E+00   0.00000000000000E+00
      0.00000000000000E+00   0.00000000000000E+00   5.99848287527329E-06   4.59009971385689E-08   6.04438387241186E-06
     -2.87422998839361E-17
      7.46935324177811E-01
     -7.46935324177811E-01  -7.46935324177811E-01   0.00000000000000E+00   0.00000000000000E+00  -7.21137569869590E-06
     -6.05977950299841E-09  -7.21743547819890E-06   2.45244523797143E-17   0.00000000000000E+00   0.00000000000000E+00
      0.00000000000000E+00   0.00000000000000E+00   7.15335847993311E-06   6.40769982657901E-08   7.21743547819890E-06
     -2.45244523797144E-17
      7.57358188813789E-01
     -7.57358188813789E-01  -7.57358188813789E-01   0.00000000000000E+00   0.00000000000000E+00  -8.41523394659408E-06
     -8.10487518556365E-09  -8.42333882177965E-06   2.11140407763064E-17   0.00000000000000E+00   0.00000000000000E+00
      0.00000000000000E+00   0.00000000000000E+00   8.33773623578430E-06   8.56025859953489E-08   8.42333882177965E-06
     -2.11140407763064E-17
      7.67086195807369E-01
     -7.67086195807369E-01  -7.67086195807369E-01   0.00000000000000E+00   0.00000000000000E+00  -9.61590601987638E-06
     -1.04076731899687E-08  -9.62631369306635E-06   1.83946742722180E-17   0.00000000000000E+00   0.00000000000000E+00
      0.00000000000000E+00   0.00000000000000E+00   9.51648570330127E-06   1.09827989765072E-07   9.62631369306634E-06
     -1.83946742722180E-17
      7.76165669001377E-01
     -7.76165669001377E-01  -7.76165669001377E-01   0.00000000000000E+00   0.00000000000000E+00  -1.07822646249855E-05
     -1.28859778823599E-08  -1.07951506028678E-05   1.62409263526509E-17   0.00000000000000E+00   0.00000000000000E+00
      0.00000000000000E+00   0.00000000000000E+00   1.06592613691828E-05   1.35889233685084E-07   1.07951506028678E-05
     -1.62409263526509E-17
      7.84639843982451E-01
     -7.84639843982451E-01  -7.84639843982451E-01   0.00000000000000E+00   0.00000000000000E+00  -1.18905006492752E-05
     -1.54520811907496E-08  -1.19059527304660E-05   1.45369662700338E-17   0.00000000000000E+00   0.00000000000000E+00
      0.00000000000000E+00   0.00000000000000E+00   1.17430875133339E-05   1.62865217132047E-07   1.19059527304660E-05
     -1.45369662700338E-17
      7.92549073964787E-01
     -7.92549073964787E-01  -7.92549073964787E-01   0.00000000000000E+00   0.00000000000000E+00  -1.29249539225052E-05
     -1.80255857367432E-08  -1.29429795082419E-05   1.31845833984186E-17   0.00000000000000E+00   0.00000000000000E+00
      0.00000000000000E+00   0.00000000000000E+00   1.27530673011625E-05   1.89912207079410E-07   1.29429795082419E-05
     -1.31845833984186E-17
      7.99931021948301E-01
     -7.99931021948301E-01  -7.99931021948301E-01   0.00000000000000E+00   0.00000000000000E+00  -1.38774479181647E-05
     -2.05413237321623E-08  -1.38979892418969E-05   1.21046416600005E-17   0.00000000000000E+00   0.00000000000000E+00
      0.00000000000000E+00   0.00000000000000E+00   1.36816425146631E-05   2.16346727233774E-07   1.38979892418969E-05
     -1.21046416600005E-17
      8.13710658184192E-01
     -8.13710658184192E-01  -8.13710658184192E-01   0.00000000000000E+00   0.00000000000000E+00  -1.55871913973459E-05
     -2.53909043287764E-08  -1.56125823016747E-05   1.04820876908096E-17   0.00000000000000E+00   0.00000000000000E+00
      0.00000000000000E+00   0.00000000000000E+00   1.53452898940102E-05   2.67292407664488E-07   1.56125823016747E-05
     -1.04820876908096E-17
      8.26571652004358E-01