DF-ISE text

Info {
  version   = 1.0
  type      = xyplot
  datasets  = [
    "time"
    "top OuterVoltage" "top InnerVoltage" "top QuasiFermiPotential" "top DisplacementCurrent" "top eCurrent"
    "top hCurrent" "top TotalCurrent" "top Charge" "bottom OuterVoltage" "bottom InnerVoltage"
    "bottom QuasiFermiPotential" "bottom DisplacementCurrent" "bottom eCurrent" "bottom hCurrent" "bottom TotalCurrent"
    "bottom Charge" ]
  functions = [
    Time
    OuterVoltage InnerVoltage QuasiFermiPotential DisplacementCurrent eCurrent
    hCurrent TotalCurrent Charge OuterVoltage InnerVoltage
    QuasiFermiPotential DisplacementCurrent eCurrent hCurrent TotalCurrent
    Charge ]
}

Data {
      0.00000000000000E+00
      0.00000000000000E+00   0.00000000000000E+00   0.00000000000000E+00   0.00000000000000E+00   2.47948825772129E-21
     -1.44782067996294E-29   2.47948824324308E-21   3.85216066100237E-17   0.00000000000000E+00   0.00000000000000E+00
      0.00000000000000E+00   0.00000000000000E+00  -2.47948825786321E-21   1.46201313048971E-29  -2.47948824324308E-21
     -3.85216066100237E-17
      0.00000000000000E+00
      0.00000000000000E+00   0.00000000000000E+00   0.00000000000000E+00   0.00000000000000E+00   1.49288812556338E-21
      7.76108143881436E-33   1.49288812557114E-21   3.85225497239067E-17   0.00000000000000E+00   0.00000000000000E+00
      0.00000000000000E+00   0.00000000000000E+00  -1.49288812569202E-21   1.20882109439274E-31  -1.49288812557114E-21
     -3.85225497239067E-17
      1.00000000000000E-02
     -1.00000000000000E-02  -1.00000000000000E-02   0.00000000000000E+00   0.00000000000000E+00  -7.87312673174910E-15
     -7.80605331851203E-19  -7.87390733708095E-15   3.84366105969028E-17   0.00000000000000E+00   0.00000000000000E+00
      0.00000000000000E+00   0.00000000000000E+00   7.83701647671167E-15   3.68908603692858E-17   7.87390733708095E-15
     -3.84366105969027E-17
      2.89333333333333E-02
     -2.89333333333333E-02  -2.89333333333333E-02   0.00000000000000E+00   0.00000000000000E+00  -3.23345661675590E-14
     -3.17036084465379E-18  -3.23377365284037E-14   3.82769403778209E-17   0.00000000000000E+00   0.00000000000000E+00
      0.00000000000000E+00   0.00000000000000E+00   3.22075999360704E-14   1.30136592333306E-16   3.23377365284037E-14
     -3.82769403778209E-17
      6.42755555555556E-02
     -6.42755555555556E-02  -6.42755555555556E-02   0.00000000000000E+00   0.00000000000000E+00  -1.52875542971856E-13
     -1.67971849890229E-17  -1.52892340156845E-13   3.79894732502660E-17   0.00000000000000E+00   0.00000000000000E+00
      0.00000000000000E+00   0.00000000000000E+00   1.52446012985341E-13   4.46327171503523E-16   1.52892340156845E-13
     -3.79894732502659E-17
      1.14275555555556E-01
     -1.14275555555556E-01  -1.14275555555556E-01   0.00000000000000E+00   0.00000000000000E+00  -9.37754854453555E-13
     -8.81840488140011E-17  -9.37843038502369E-13   3.76058641728400E-17   0.00000000000000E+00   0.00000000000000E+00
      0.00000000000000E+00   0.00000000000000E+00   9.36211040649553E-13   1.63199785281590E-15   9.37843038502369E-13
     -3.76058641728400E-17
      1.39275555555556E-01
     -1.39275555555556E-01  -1.39275555555556E-01   0.00000000000000E+00   0.00000000000000E+00  -2.22794218904286E-12
     -2.24212743805761E-16  -2.22816640178667E-12   3.74238175877641E-17   0.00000000000000E+00   0.00000000000000E+00
      0.00000000000000E+00   0.00000000000000E+00   2.22515996087117E-12   3.00644091550214E-15   2.22816640178667E-12
     -3.74238175877641E-17
      1.60942222222222E-01
     -1.60942222222222E-01  -1.60942222222222E-01   0.00000000000000E+00   0.00000000000000E+00  -4.66402765946267E-12
     -5.10516526281450E-16  -4.66453817598895E-12   3.72710036002849E-17   0.00000000000000E+00   0.00000000000000E+00
      0.00000000000000E+00   0.00000000000000E+00   4.65943482792830E-12   5.10334806065762E-15   4.66453817598896E-12
     -3.72710036002849E-17
      1.79431111111111E-01
     -1.79431111111111E-01  -1.79431111111111E-01   0.00000000000000E+00   0.00000000000000E+00  -8.69960221879823E-12
     -1.03679249163429E-15  -8.70063901128986E-12   3.71440150104577E-17   0.00000000000000E+00   0.00000000000000E+00
      0.00000000000000E+00   0.00000000000000E+00   8.69257998743690E-12   8.05902385294568E-15   8.70063901128985E-12
     -3.71440150104577E-17
      1.95208296296296E-01
     -1.95208296296296E-01  -1.95208296296296E-01   0.00000000000000E+00   0.00000000000000E+00  -1.47347996433439E-11
     -1.90269836417970E-15  -1.47367023417081E-11   3.70379402947562E-17   0.00000000000000E+00   0.00000000000000E+00
      0.00000000000000E+00   0.00000000000000E+00   1.47247212515285E-11   1.19810901795588E-14   1.47367023417081E-11
     -3.70379402947562E-17
      2.19610342716049E-01
     -2.19610342716049E-01  -2.19610342716049E-01   0.00000000000000E+00   0.00000000000000E+00  -3.29719844093210E-11
     -4.87794724025250E-15  -3.29768623565612E-11   3.68775064234244E-17   0.00000000000000E+00   0.00000000000000E+00
      0.00000000000000E+00   0.00000000000000E+00   3.29543701087369E-11   2.24922478243114E-14   3.29768623565612E-11
     -3.68775064234245E-17
      2.35553013043621E-01
     -2.35553013043621E-01  -2.35553013043621E-01   0.00000000000000E+00   0.00000000000000E+00  -5.54288644293592E-11
     -9.03042341812200E-15  -5.54378948527773E-11   3.67746104165209E-17   0.00000000000000E+00   0.00000000000000E+00
      0.00000000000000E+00   0.00000000000000E+00   5.54034976086175E-11   3.43972441597529E-14   5.54378948527773E-11
     -3.67746104165209E-17
      2.49157425056483E-01
     -2.49157425056483E-01  -2.49157425056483E-01   0.00000000000000E+00   0.00000000000000E+00  -8.59414585073902E-11
     -1.52776207388589E-14  -8.59567361281290E-11   3.66876195168173E-17   0.00000000000000E+00   0.00000000000000E+00
      0.00000000000000E+00   0.00000000000000E+00   8.59068335305540E-11   4.99025975750756E-14   8.59567361281290E-11
     -3.66876195168174E-17
      2.61492091948144E-01
     -2.61492091948144E-01  -2.61492091948144E-01   0.00000000000000E+00   0.00000000000000E+00  -1.27382186488864E-10
     -2.46149395646309E-14  -1.27406801428429E-10   3.66090604713355E-17   0.00000000000000E+00   0.00000000000000E+00
      0.00000000000000E+00   0.00000000000000E+00   1.27336290304769E-10   7.05111236591617E-14   1.27406801428428E-10
     -3.66090604713355E-17
      2.66919345380475E-01
     -2.66919345380475E-01  -2.66919345380475E-01   0.00000000000000E+00   0.00000000000000E+00  -1.51260566419277E-10
     -3.03571566361463E-14  -1.51290923575914E-10   3.65744914153549E-17   0.00000000000000E+00   0.00000000000000E+00
      0.00000000000000E+00   0.00000000000000E+00   1.51208619682112E-10   8.23038938014185E-14   1.51290923575914E-10
     -3.65744914153549E-17
      2.72057145296415E-01
     -2.72057145296415E-01  -2.72057145296415E-01   0.00000000000000E+00   0.00000000000000E+00  -1.77834044479677E-10
     -3.70278974291131E-14  -1.77871072377106E-10   3.65417154923002E-17   0.00000000000000E+00   0.00000000000000E+00
      0.00000000000000E+00   0.00000000000000E+00   1.77775644054795E-10   9.54283223105107E-14   1.77871072377106E-10
     -3.65417154923002E-17
      2.76920929216838E-01
     -2.76920929216838E-01  -2.76920929216838E-01   0.00000000000000E+00   0.00000000000000E+00  -2.07123517401215E-10
     -4.46887569822327E-14  -2.07168206158197E-10   3.65106079037508E-17   0.00000000000000E+00   0.00000000000000E+00
      0.00000000000000E+00   0.00000000000000E+00   2.07058279516952E-10   1.09926641245695E-13   2.07168206158197E-10
     -3.65106079037508E-17
      2.81525311328172E-01
     -2.81525311328172E-01  -2.81525311328172E-01   0.00000000000000E+00   0.00000000000000E+00  -2.39115595637582E-10
     -5.33965526779013E-14  -2.39168992190260E-10   3.64810552642193E-17   0.00000000000000E+00   0.00000000000000E+00
      0.00000000000000E+00   0.00000000000000E+00   2.39043159864178E-10   1.25832326082520E-13   2.39168992190260E-10
     -3.64810552642194E-17
      2.85884126393568E-01
     -2.85884126393568E-01  -2.85884126393568E-01   0.00000000000000E+00   0.00000000000000E+00  -2.73763383111673E-10
     -6.31983206087146E-14  -2.73826581432282E-10   3.64529545865621E-17   0.00000000000000E+00   0.00000000000000E+00
      0.00000000000000E+00   0.00000000000000E+00   2.73683415777122E-10   1.43165655160533E-13   2.73826581432283E-10
     -3.64529545865621E-17
      2.90010471322143E-01
     -2.90010471322143E-01  -2.90010471322143E-01   0.00000000000000E+00   0.00000000000000E+00  -3.10988158487081E-10
     -7.41301169927133E-14  -3.11062288604073E-10   3.64262123212319E-17   0.00000000000000E+00   0.00000000000000E+00
      0.00000000000000E+00   0.00000000000000E+00   3.10900355506095E-10   1.61933097978571E-13   3.11062288604073E-10
     -3.64262123212319E-17
      2.97823017720244E-01
     -2.97823017720244E-01  -2.97823017720244E-01   0.00000000000000E+00   0.00000000000000E+00  -3.95216170760710E-10
     -1.00275427378853E-13  -3.95316446188089E-10   3.63750983289634E-17   0.00000000000000E+00   0.00000000000000E+00
      0.00000000000000E+00   0.00000000000000E+00   3.95111422331025E-10   2.05023857063567E-13   3.95316446188088E-10
     -3.63750983289635E-17
      3.12406437663368E-01
     -3.12406437663368E-01  -3.12406437663368E-01   0.00000000000000E+00   0.00000000000000E+00  -6.14232992298840E-10
     -1.76224499339782E-13  -6.14409216798180E-10   3.62772623115242E-17   0.00000000000000E+00   0.00000000000000E+00
      0.00000000000000E+00   0.00000000000000E+00   6.14087711496237E-10   3.21505301942848E-13   6.14409216798180E-10
     -3.62772623115242E-17
      3.38851039160232E-01
     -3.38851039160232E-01  -3.38851039160232E-01   0.00000000000000E+00   0.00000000000000E+00  -1.33316781145417E-09
     -4.89843322817389E-13  -1.33365765477699E-09   3.60857337082053E-17   0.00000000000000E+00   0.00000000000000E+00
      0.00000000000000E+00   0.00000000000000E+00   1.33290776103698E-09   7.49893740006135E-13   1.33365765477698E-09
     -3.60857337082053E-17
      3.60359315044348E-01
     -3.60359315044348E-01  -3.60359315044348E-01   0.00000000000000E+00   0.00000000000000E+00  -2.43582723159389E-09
     -1.12478969685262E-12  -2.43695202129074E-09   3.59058322582138E-17   0.00000000000000E+00   0.00000000000000E+00
      0.00000000000000E+00   0.00000000000000E+00   2.43541567847657E-09   1.53634281417148E-12   2.43695202129074E-09
     -3.59058322582138E-17
      3.69392790915676E-01
     -3.69392790915676E-01  -3.69392790915676E-01   0.00000000000000E+00   0.00000000000000E+00  -3.11233801266951E-09
     -1.59459134067232E-12  -3.11393260401018E-09   3.58201422022660E-17   0.00000000000000E+00   0.00000000000000E+00
      0.00000000000000E+00   0.00000000000000E+00   3.11184134704167E-09   2.09125696850635E-12   3.11393260401018E-09
     -3.58201422022660E-17
      3.85532601139117E-01
     -3.85532601139117E-01  -3.85532601139117E-01   0.00000000000000E+00   0.00000000000000E+00  -4.76372209870252E-09
     -2.97411940468095E-12  -4.76669621810720E-09   3.56459801799023E-17   0.00000000000000E+00   0.00000000000000E+00
      0.00000000000000E+00   0.00000000000000E+00   4.76303279782379E-09   3.66342028341712E-12   4.76669621810721E-09
     -3.56459801799023E-17
      3.99305239196453E-01
     -3.99305239196453E-01  -3.99305239196453E-01   0.00000000000000E+00   0.00000000000000E+00  -6.76502450882641E-09
     -5.06057664688157E-12  -6.77008508547330E-09   3.54693024911200E-17   0.00000000000000E+00   0.00000000000000E+00
      0.00000000000000E+00   0.00000000000000E+00   6.76412075315708E-09   5.96433231622196E-12   6.77008508547330E-09
     -3.54693024911200E-17
      4.05548835115779E-01
     -4.05548835115779E-01  -4.05548835115779E-01   0.00000000000000E+00   0.00000000000000E+00  -7.90131609512382E-09
     -6.43841435058674E-12  -7.90775450947440E-09   3.53784282032685E-17   0.00000000000000E+00   0.00000000000000E+00
      0.00000000000000E+00   0.00000000000000E+00   7.90029712344374E-09   7.45738603065827E-12   7.90775450947439E-09
     -3.53784282032685E-17
      4.11459439252740E-01
     -4.11459439252740E-01  -4.11459439252740E-01   0.00000000000000E+00   0.00000000000000E+00  -9.13315563856002E-09
     -8.08592474076770E-12  -9.14124156330079E-09   3.52851008934127E-17   0.00000000000000E+00   0.00000000000000E+00
      0.00000000000000E+00   0.00000000000000E+00   9.13201599198046E-09   9.22557132033438E-12   9.14124156330080E-09
     -3.52851008934127E-17
      4.17054811169064E-01
     -4.17054811169064E-01  -4.17054811169064E-01   0.00000000000000E+00   0.00000000000000E+00  -1.04564875422279E-08
     -1.00311235418167E-11  -1.04665186657697E-08   3.51894455815095E-17   0.00000000000000E+00   0.00000000000000E+00
      0.00000000000000E+00   0.00000000000000E+00   1.04552224491608E-08   1.12962166089453E-11   1.04665186657697E-08
     -3.51894455815095E-17
      4.27648715330637E-01
     -4.27648715330637E-01  -4.27648715330637E-01   0.00000000000000E+00   0.00000000000000E+00  -1.34456250002172E-08
     -1.50809208192918E-11  -1.34607059210365E-08   3.49860565909926E-17   0.00000000000000E+00   0.00000000000000E+00
      0.00000000000000E+00   0.00000000000000E+00   1.34440898061091E-08   1.66161149274000E-11   1.34607059210365E-08
     -3.49860565909927E-17
      4.46293986655005E-01
     -4.46293986655005E-01  -4.46293986655005E-01   0.00000000000000E+00   0.00000000000000E+00  -2.06335255725675E-08
     -3.08539712168795E-11  -2.06643795437844E-08   3.45408719777062E-17   0.00000000000000E+00   0.00000000000000E+00
      0.00000000000000E+00   0.00000000000000E+00   2.06313982597900E-08   3.29812839944209E-11   2.06643795437844E-08
     -3.45408719777062E-17
      4.62453221802791E-01
     -4.62453221802791E-01  -4.62453221802791E-01   0.00000000000000E+00   0.00000000000000E+00  -2.95057482770566E-08
     -5.72181294807795E-11  -2.95629664065374E-08   3.40389726199024E-17   0.00000000000000E+00   0.00000000000000E+00
      0.00000000000000E+00   0.00000000000000E+00   2.95029739252722E-08   5.99924812652220E-11   2.95629664065374E-08
     -3.40389726199024E-17
      4.69563285267816E-01
     -4.69563285267816E-01  -4.69563285267816E-01   0.00000000000000E+00   0.00000000000000E+00  -3.44081733969630E-08
     -7.49963721864822E-11  -3.44831697691495E-08   3.37757908961246E-17   0.00000000000000E+00   0.00000000000000E+00
      0.00000000000000E+00   0.00000000000000E+00   3.44050740925927E-08   7.80956765567448E-11   3.44831697691495E-08
     -3.37757908961246E-17
      4.76199344501840E-01
     -4.76199344501840E-01  -4.76199344501840E-01   0.00000000000000E+00   0.00000000000000E+00  -3.96397753156736E-08
     -9.64603633222224E-11  -3.97362356789958E-08   3.35032395235696E-17   0.00000000000000E+00   0.00000000000000E+00
      0.00000000000000E+00   0.00000000000000E+00   3.96363521117855E-08   9.98835672103327E-11   3.97362356789958E-08
     -3.35032395235696E-17
      4.88763616651593E-01
     -4.88763616651593E-01  -4.88763616651593E-01   0.00000000000000E+00   0.00000000000000E+00  -5.15671278973641E-08
     -1.54915902137463E-10  -5.17220437995016E-08   3.29073734115408E-17   0.00000000000000E+00   0.00000000000000E+00
      0.00000000000000E+00   0.00000000000000E+00   5.15630475372863E-08   1.58996262215264E-10   5.17220437995016E-08
     -3.29073734115408E-17
      4.99987699772038E-01
     -4.99987699772038E-01  -4.99987699772038E-01   0.00000000000000E+00   0.00000000000000E+00  -6.48784272122717E-08
     -2.35592263273954E-10  -6.51140194755456E-08   3.22758456378369E-17   0.00000000000000E+00   0.00000000000000E+00
      0.00000000000000E+00   0.00000000000000E+00   6.48737369213655E-08   2.40282554180139E-10   6.51140194755456E-08
     -3.22758456378369E-17
      5.10164201801241E-01
     -5.10164201801241E-01  -5.10164201801241E-01   0.00000000000000E+00   0.00000000000000E+00  -7.95430871821542E-08
     -3.43055377237003E-10  -7.98861425593912E-08   3.16134757572755E-17   0.00000000000000E+00   0.00000000000000E+00
      0.00000000000000E+00   0.00000000000000E+00   7.95378656876875E-08   3.48276871703566E-10   7.98861425593911E-08
     -3.16134757572755E-17
      5.28888965534976E-01
     -5.28888965534976E-01  -5.28888965534976E-01   0.00000000000000E+00   0.00000000000000E+00  -1.14387263279029E-07
     -6.74931972779437E-10  -1.15062195251809E-07   3.01546930680820E-17   0.00000000000000E+00   0.00000000000000E+00
      0.00000000000000E+00   0.00000000000000E+00   1.14381332222998E-07   6.80863028810324E-10   1.15062195251809E-07
     -3.01546930680820E-17
      5.37127861577819E-01
     -5.37127861577819E-01  -5.37127861577819E-01   0.00000000000000E+00   0.00000000000000E+00  -1.33506610851559E-07
     -9.01809304770069E-10  -1.34408420156330E-07   2.94131686127321E-17   0.00000000000000E+00   0.00000000000000E+00
      0.00000000000000E+00   0.00000000000000E+00   1.33500603950721E-07   9.07816205608743E-10   1.34408420156330E-07
     -2.94131686127321E-17
      5.44817497884473E-01
     -5.44817497884473E-01  -5.44817497884473E-01   0.00000000000000E+00   0.00000000000000E+00  -1.53718459799583E-07
     -1.17533314348072E-09  -1.54893792943064E-07   2.86689851331302E-17   0.00000000000000E+00   0.00000000000000E+00
      0.00000000000000E+00   0.00000000000000E+00   1.53712603928196E-07   1.18118901486802E-09   1.54893792943064E-07
     -2.86689851331302E-17
      5.51994491770683E-01
     -5.51994491770683E-01  -5.51994491770683E-01   0.00000000000000E+00   0.00000000000000E+00  -1.74785279079257E-07
     -1.49655598377235E-09  -1.76281835063030E-07   2.79328988809544E-17   0.00000000000000E+00   0.00000000000000E+00
      0.00000000000000E+00   0.00000000000000E+00   1.74779826281432E-07   1.50200878159731E-09   1.76281835063029E-07
     -2.79328988809544E-17
      5.65391547024942E-01
     -5.65391547024942E-01  -5.65391547024942E-01   0.00000000000000E+00   0.00000000000000E+00  -2.20122157055637E-07
     -2.30938947586928E-09  -2.22431546531506E-07   2.64702416046704E-17   0.00000000000000E+00   0.00000000000000E+00
      0.00000000000000E+00   0.00000000000000E+00   2.20118391595601E-07   2.31315493590457E-09   2.22431546531506E-07
     -2.64702416046704E-17
      5.77538210455470E-01
     -5.77538210455470E-01  -5.77538210455470E-01   0.00000000000000E+00   0.00000000000000E+00  -2.68151373946865E-07
     -3.34463919078658E-09  -2.71496013137651E-07   2.50769642628016E-17   0.00000000000000E+00   0.00000000000000E+00
      0.00000000000000E+00   0.00000000000000E+00   2.68150564870772E-07   3.34544826687945E-09   2.71496013137651E-07
     -2.50769642628016E-17
      6.00211982192456E-01
     -6.00211982192456E-01  -6.00211982192456E-01   0.00000000000000E+00   0.00000000000000E+00  -3.74126444279007E-07
     -6.21918601954147E-09  -3.80345630298548E-07   2.24555023771986E-17   0.00000000000000E+00   0.00000000000000E+00
      0.00000000000000E+00   0.00000000000000E+00   3.74136117458119E-07   6.20951284043030E-09   3.80345630298549E-07
     -2.24555023771986E-17
      6.19862584364511E-01
     -6.19862584364511E-01  -6.19862584364511E-01   0.00000000000000E+00   0.00000000000000E+00  -4.78526009479715E-07
     -9.76906658836422E-09  -4.88295076068079E-07   2.03420435400591E-17   0.00000000000000E+00   0.00000000000000E+00
      0.00000000000000E+00   0.00000000000000E+00   4.78550858648469E-07   9.74421741961023E-09   4.88295076068080E-07
     -2.03420435400591E-17
      6.28639853334695E-01
     -6.28639853334695E-01  -6.28639853334695E-01   0.00000000000000E+00   0.00000000000000E+00  -5.26949833803071E-07
     -1.16311391741170E-08  -5.38580972977188E-07   1.94861452739393E-17   0.00000000000000E+00   0.00000000000000E+00
      0.00000000000000E+00   0.00000000000000E+00   5.26983197759196E-07   1.15977752179919E-08   5.38580972977187E-07
     -1.94861452739393E-17
      6.36831971040200E-01
     -6.36831971040200E-01  -6.36831971040200E-01   0.00000000000000E+00   0.00000000000000E+00  -5.72239178266241E-07
     -1.34840742573364E-08  -5.85723252523577E-07   1.87462465154425E-17   0.00000000000000E+00   0.00000000000000E+00
      0.00000000000000E+00   0.00000000000000E+00   5.72281281292185E-07   1.34419712313927E-08   5.85723252523578E-07
     -1.87462465154426E-17
      6.52123924090477E-01
     -6.52123924090477E-01  -6.52123924090477E-01   0.00000000000000E+00   0.00000000000000E+00  -6.55103645680712E-07
     -1.71235700298943E-08  -6.72227215710606E-07   1.75257954721367E-17   0.00000000000000E+00   0.00000000000000E+00
      0.00000000000000E+00   0.00000000000000E+00   6.55163511750046E-07   1.70637039605598E-08   6.72227215710606E-07
     -1.75257954721367E-17
      6.65580842774720E-01
     -6.65580842774720E-01  -6.65580842774720E-01   0.00000000000000E+00   0.00000000000000E+00  -7.24313656245739E-07
     -2.03745179982886E-08  -7.44688174244028E-07   1.66223648139173E-17   0.00000000000000E+00   0.00000000000000E+00
      0.00000000000000E+00   0.00000000000000E+00   7.24389916869385E-07   2.02982573746433E-08   7.44688174244028E-07
     -1.66223648139173E-17
      6.90700424318642E-01
     -6.90700424318642E-01  -6.90700424318642E-01   0.00000000000000E+00   0.00000000000000E+00  -8.40271844597931E-07
     -2.61377761811841E-08  -8.66409620779115E-07   1.53110151954039E-17   0.00000000000000E+00   0.00000000000000E+00
      0.00000000000000E+00   0.00000000000000E+00   8.40378128878007E-07   2.60314919011085E-08   8.66409620779115E-07
     -1.53110151954039E-17
      7.30221899281077E-01
     -7.30221899281077E-01  -7.30221899281077E-01   0.00000000000000E+00   0.00000000000000E+00  -9.87453976737400E-07
     -3.37268302469894E-08  -1.02118080698439E-06   1.39558065237158E-17   0.00000000000000E+00   0.00000000000000E+00
      0.00000000000000E+00   0.00000000000000E+00   9.87601356697204E-07   3.35794502871851E-08   1.02118080698439E-06
     -1.39558065237158E-17
      7.55221899281077E-01
     -7.55221899281077E-01  -7.55221899281077E-01   0.00000000000000E+00   0.00000000000000E+00  -1.06361797803061E-06
     -3.76459597362595E-08  -1.10126393776687E-06   1.33688862310577E-17   0.00000000000000E+00   0.00000000000000E+00
      0.00000000000000E+00   0.00000000000000E+00   1.06378720269756E-06   3.74767350693125E-08   1.10126393776687E-06
     -1.33688862310578E-17
      7.99221899281077E-01
     -7.99221899281077E-01  -7.99221899281077E-01   0.00000000000000E+00   0.00000000000000E+00  -1.17846421065851E-06
     -4.34508085769061E-08  -1.22191501923541E-06   1.26020852837812E-17   0.00000000000000E+00   0.00000000000000E+00
      0.00000000000000E+00   0.00000000000000E+00   1.17866647402444E-06   4.32485452109767E-08   1.22191501923541E-06
     -1.26020852837813E-17
      8.24221899281077E-01
     -8.24221899281077E-01  -8.24221899281077E-01   0.00000000000000E+00   0.00000000000000E+00  -1.23675741883152E-06
     -4.63434663606728E-08  -1.28310088519219E-06   1.22573352689874E-17   0.00000000000000E+00   0.00000000000000E+00
      0.00000000000000E+00   0.00000000000000E+00   1.23697640764393E-06   4.61244775482557E-08   1.28310088519219E-06
     -1.22573352689874E-17
      8.46221899281077E-01
     -8.46221899281077E-01  -8.46221899281077E-01   0.00000000000000E+00   0.00000000000000E+00  -1.28521736010275E-06
     -4.87218698073271E-08  -1.33393922991008E-06   1.19896995473433E-17   0.00000000000000E+00   0.00000000000000E+00
      0.00000000000000E+00   0.00000000000000E+00   1.28545021309762E-06   4.84890168124648E-08   1.33393922991008E-06
     -1.19896995473432E-17
      8.65875232614411E-01
     -8.65875232614411E-01  -8.65875232614411E-01   0.00000000000000E+00   0.00000000000000E+00  -1.32670888054333E-06
     -5.07397777583256E-08  -1.37744865830165E-06   1.17727713385417E-17   0.00000000000000E+00   0.00000000000000E+00
      0.00000000000000E+00   0.00000000000000E+00   1.32695356872393E-06   5.04950895777209E-08   1.37744865830165E-06
     -1.17727713385417E-17
      9.00465099281077E-01
     -9.00465099281077E-01  -9.00465099281077E-01   0.00000000000000E+00   0.00000000000000E+00  -1.39636934050400E-06
     -5.40894467438328E-08  -1.45045878724783E-06   1.14312734873275E-17   0.00000000000000E+00   0.00000000000000E+00
      0.00000000000000E+00   0.00000000000000E+00   1.39663380882659E-06   5.38249784212420E-08   1.45045878724783E-06
     -1.14312734873275E-17
      9.12965099281077E-01
     -9.12965099281077E-01  -9.12965099281077E-01   0.00000000000000E+00   0.00000000000000E+00  -1.42063715231635E-06
     -5.52450422746104E-08  -1.47588219459096E-06   1.13184226944420E-17   0.00000000000000E+00   0.00000000000000E+00
      0.00000000000000E+00   0.00000000000000E+00   1.42090848060414E-06   5.49737139868253E-08   1.47588219459096E-06
     -1.13184226944420E-17
      9.34965099281077E-01
     -9.34965099281077E-01  -9.34965099281077E-01   0.00000000000000E+00   0.00000000000000E+00  -1.46233247271287E-06
     -5.72166578174466E-08  -1.51954913053032E-06   1.11313138642984E-17   0.00000000000000E+00   0.00000000000000E+00
      0.00000000000000E+00   0.00000000000000E+00   1.46261554485628E-06   5.69335856740368E-08   1.51954913053032E-06
     -1.11313138642985E-17
      9.54911765947744E-01
     -9.54911765947744E-01  -9.54911765947744E-01   0.00000000000000E+00   0.00000000000000E+00  -1.49912182010857E-06
     -5.89415769351594E-08  -1.55806339704373E-06   1.09729226762005E-17   0.00000000000000E+00   0.00000000000000E+00
      0.00000000000000E+00   0.00000000000000E+00   1.49941520578309E-06   5.86481912606395E-08   1.55806339704373E-06
     -1.09729226762004E-17
      9.72996743725522E-01
     -9.72996743725522E-01  -9.72996743725522E-01   0.00000000000000E+00   0.00000000000000E+00  -1.53172573888718E-06
     -6.04585503209442E-08  -1.59218428920812E-06   1.08374798614019E-17   0.00000000000000E+00   0.00000000000000E+00
      0.00000000000000E+00   0.00000000000000E+00   1.53202822351922E-06   6.01560656889036E-08   1.59218428920812E-06
     -1.08374798614018E-17
      9.86498371862761E-01
     -9.86498371862761E-01  -9.86498371862761E-01   0.00000000000000E+00   0.00000000000000E+00  -1.55563837625768E-06
     -6.15640367007251E-08  -1.61720241295840E-06   1.07409394340471E-17   0.00000000000000E+00   0.00000000000000E+00
      0.00000000000000E+00   0.00000000000000E+00   1.55594750810471E-06   6.12549048536959E-08   1.61720241295840E-06
     -1.07409394340472E-17
      1.00000000000000E+00
     -1.00000000000000E+00  -1.00000000000000E+00   0.00000000000000E+00   0.00000000000000E+00  -1.57920980058790E-06
     -6.26477683080504E-08  -1.64185756889595E-06   1.06479970802903E-17   0.00000000000000E+00   0.00000000000000E+00
      0.00000000000000E+00   0.00000000000000E+00   1.57952546194792E-06   6.23321069480294E-08   1.64185756889595E-06
     -1.06479970802902E-17
}
