DF-ISE text

Info {
  version   = 1.0
  type      = xyplot
  datasets  = [
    "time"
    "top OuterVoltage" "top InnerVoltage" "top QuasiFermiPotential" "top DisplacementCurrent" "top eCurrent"
    "top hCurrent" "top TotalCurrent" "top Charge" "bottom OuterVoltage" "bottom InnerVoltage"
    "bottom QuasiFermiPotential" "bottom DisplacementCurrent" "bottom eCurrent" "bottom hCurrent" "bottom TotalCurrent"
    "bottom Charge" ]
  functions = [
    Time
    OuterVoltage InnerVoltage QuasiFermiPotential DisplacementCurrent eCurrent
    hCurrent TotalCurrent Charge OuterVoltage InnerVoltage
    QuasiFermiPotential DisplacementCurrent eCurrent hCurrent TotalCurrent
    Charge ]
}

Data {
      0.00000000000000E+00
      0.00000000000000E+00   0.00000000000000E+00   0.00000000000000E+00   0.00000000000000E+00  -6.15237511961402E-22
     -1.05526955728048E-30  -6.15237513016671E-22   6.96688734560146E-17   0.00000000000000E+00   0.00000000000000E+00
      0.00000000000000E+00   0.00000000000000E+00   6.15237511896249E-22   1.12042287050950E-30   6.15237513016672E-22
     -6.96688734560145E-17
      0.00000000000000E+00
      0.00000000000000E+00   0.00000000000000E+00   0.00000000000000E+00   0.00000000000000E+00  -1.82216034606944E-15
      3.21354401489975E-27  -1.82216034606622E-15   6.96690488636983E-17   0.00000000000000E+00   0.00000000000000E+00
      0.00000000000000E+00   0.00000000000000E+00   1.82216034606953E-15  -3.30866230979226E-27   1.82216034606623E-15
     -6.96690488636983E-17
      1.00000000000000E-02
     -1.00000000000000E-02  -1.00000000000000E-02   0.00000000000000E+00   0.00000000000000E+00  -9.17798205328103E-15
     -1.28766081842189E-21  -9.17798334094185E-15   6.96042973192201E-17   0.00000000000000E+00   0.00000000000000E+00
      0.00000000000000E+00   0.00000000000000E+00   9.14404773810406E-15   3.39356028377927E-17   9.17798334094186E-15
     -6.96042973192200E-17
      1.94666666666667E-02
     -1.94666666666667E-02  -1.94666666666667E-02   0.00000000000000E+00   0.00000000000000E+00  -2.12252780357584E-14
     -3.05938878074603E-21  -2.12252810951472E-14   6.95438473359241E-17   0.00000000000000E+00   0.00000000000000E+00
      0.00000000000000E+00   0.00000000000000E+00   2.11526020443859E-14   7.26790507612283E-17   2.12252810951471E-14
     -6.95438473359239E-17
      3.73902222222222E-02
     -3.73902222222222E-02  -3.73902222222222E-02   0.00000000000000E+00   0.00000000000000E+00  -5.80585107897502E-14
     -8.82108497801011E-21  -5.80585196108352E-14   6.94316547390993E-17   0.00000000000000E+00   0.00000000000000E+00
      0.00000000000000E+00   0.00000000000000E+00   5.78887379291162E-14   1.69781681718999E-16   5.80585196108352E-14
     -6.94316547390994E-17
      5.19680474074074E-02
     -5.19680474074074E-02  -5.19680474074074E-02   0.00000000000000E+00   0.00000000000000E+00  -1.10264987602438E-13
     -1.75045467850903E-20  -1.10265005106985E-13   6.93425834492765E-17   0.00000000000000E+00   0.00000000000000E+00
      0.00000000000000E+00   0.00000000000000E+00   1.09984411653879E-13   2.80593453105668E-16   1.10265005106985E-13
     -6.93425834492765E-17
      6.53796465777778E-02
     -6.53796465777778E-02  -6.53796465777778E-02   0.00000000000000E+00   0.00000000000000E+00  -1.88148999693380E-13
     -3.11503522670658E-20  -1.88149030843733E-13   6.92623604384464E-17   0.00000000000000E+00   0.00000000000000E+00
      0.00000000000000E+00   0.00000000000000E+00   1.87730706466315E-13   4.18324377417617E-16   1.88149030843733E-13
     -6.92623604384463E-17
      7.77183178145185E-02
     -7.77183178145185E-02  -7.77183178145185E-02   0.00000000000000E+00   0.00000000000000E+00  -2.99955672445180E-13
     -5.16685545294442E-20  -2.99955724113735E-13   6.91900087418135E-17   0.00000000000000E+00   0.00000000000000E+00
      0.00000000000000E+00   0.00000000000000E+00   2.99369535953687E-13   5.86188160048324E-16   2.99955724113736E-13
     -6.91900087418136E-17
      8.90698953523200E-02
     -8.90698953523200E-02  -8.90698953523200E-02   0.00000000000000E+00   0.00000000000000E+00  -4.54752166192785E-13
     -8.13244738431740E-20  -4.54752247517259E-13   6.91246703023905E-17   0.00000000000000E+00   0.00000000000000E+00
      0.00000000000000E+00   0.00000000000000E+00   4.53965484014563E-13   7.86763502695865E-16   4.54752247517259E-13
     -6.91246703023905E-17
      9.96647010542680E-02
     -9.96647010542680E-02  -9.96647010542680E-02   0.00000000000000E+00   0.00000000000000E+00  -6.65559636896834E-13
     -1.23385165435128E-19  -6.65559760281999E-13   6.90647415526129E-17   0.00000000000000E+00   0.00000000000000E+00
      0.00000000000000E+00   0.00000000000000E+00   6.64534065494557E-13   1.02569478744301E-15   6.65559760282000E-13
     -6.90647415526128E-17
      1.09553186376086E-01
     -1.09553186376086E-01  -1.09553186376086E-01   0.00000000000000E+00   0.00000000000000E+00  -9.45185588881869E-13
     -1.81394876258491E-19  -9.45185770276746E-13   6.90097203265723E-17   0.00000000000000E+00   0.00000000000000E+00
      0.00000000000000E+00   0.00000000000000E+00   9.43879709214769E-13   1.30606106197626E-15   9.45185770276745E-13
     -6.90097203265723E-17
      1.28011692310147E-01
     -1.28011692310147E-01  -1.28011692310147E-01   0.00000000000000E+00   0.00000000000000E+00  -1.80295688720108E-12
     -3.70329356001771E-19  -1.80295725753043E-12   6.89093471308818E-17   0.00000000000000E+00   0.00000000000000E+00
      0.00000000000000E+00   0.00000000000000E+00   1.80092758431349E-12   2.02967321694324E-15   1.80295725753044E-12
     -6.89093471308819E-17
      1.42778497057395E-01
     -1.42778497057395E-01  -1.42778497057395E-01   0.00000000000000E+00   0.00000000000000E+00  -3.00285753025511E-12
     -6.53769725385828E-19  -3.00285818402484E-12   6.88312040641507E-17   0.00000000000000E+00   0.00000000000000E+00
      0.00000000000000E+00   0.00000000000000E+00   2.99998787999322E-12   2.87030403161536E-15   3.00285818402484E-12
     -6.88312040641507E-17
      1.56363957424864E-01
     -1.56363957424864E-01  -1.56363957424864E-01   0.00000000000000E+00   0.00000000000000E+00  -4.78066540305356E-12
     -1.10225537954676E-18  -4.78066650530894E-12   6.87609683902982E-17   0.00000000000000E+00   0.00000000000000E+00
      0.00000000000000E+00   0.00000000000000E+00   4.77672968699460E-12   3.93681831433425E-15   4.78066650530893E-12
     -6.87609683902981E-17
      1.68862580962935E-01
     -1.68862580962935E-01  -1.68862580962935E-01   0.00000000000000E+00   0.00000000000000E+00  -7.30802720791688E-12
     -1.78266084202561E-18  -7.30802899057772E-12   6.86977175812450E-17   0.00000000000000E+00   0.00000000000000E+00
      0.00000000000000E+00   0.00000000000000E+00   7.30277183260968E-12   5.25715796803436E-15   7.30802899057772E-12
     -6.86977175812451E-17
      1.80361314617960E-01
     -1.80361314617960E-01  -1.80361314617960E-01   0.00000000000000E+00   0.00000000000000E+00  -1.07677012168737E-11
     -2.77540471420140E-18  -1.07677039922784E-11   6.86406473750764E-17   0.00000000000000E+00   0.00000000000000E+00
      0.00000000000000E+00   0.00000000000000E+00   1.07608490920960E-11   6.85490018241536E-15   1.07677039922784E-11
     -6.86406473750763E-17
      1.91093466029317E-01
     -1.91093466029317E-01  -1.91093466029317E-01   0.00000000000000E+00   0.00000000000000E+00  -1.54215641157024E-11
     -4.19705500261286E-18  -1.54215683127574E-11   6.85883146469061E-17   0.00000000000000E+00   0.00000000000000E+00
      0.00000000000000E+00   0.00000000000000E+00   1.54127895342633E-11   8.77877849413625E-15   1.54215683127574E-11
     -6.85883146469061E-17
      2.10840624626214E-01
     -2.10840624626214E-01  -2.10840624626214E-01   0.00000000000000E+00   0.00000000000000E+00  -2.96673117993509E-11
     -8.99189596744070E-18  -2.96673207912469E-11   6.84942308235092E-17   0.00000000000000E+00   0.00000000000000E+00
      0.00000000000000E+00   0.00000000000000E+00   2.96534838768906E-11   1.38369143562928E-14   2.96673207912469E-11
     -6.84942308235092E-17
      2.27954828743525E-01
     -2.27954828743525E-01  -2.27954828743525E-01   0.00000000000000E+00   0.00000000000000E+00  -5.19118786457784E-11
     -1.74162343207273E-17  -5.19118960620127E-11   6.84147722173496E-17   0.00000000000000E+00   0.00000000000000E+00
      0.00000000000000E+00   0.00000000000000E+00   5.18913656215154E-11   2.05304404972810E-14   5.19118960620127E-11
     -6.84147722173498E-17
      2.43471707143220E-01
     -2.43471707143220E-01  -2.43471707143220E-01   0.00000000000000E+00   0.00000000000000E+00  -8.56405728618688E-11
     -3.17262384292922E-17  -8.56406045881072E-11   6.83441106295426E-17   0.00000000000000E+00   0.00000000000000E+00
      0.00000000000000E+00   0.00000000000000E+00   8.56112356800129E-11   2.93689080942407E-14   8.56406045881072E-11
     -6.83441106295426E-17
      2.57747235270940E-01
     -2.57747235270940E-01  -2.57747235270940E-01   0.00000000000000E+00   0.00000000000000E+00  -1.34901214154244E-10
     -5.50963718299463E-17  -1.34901269250616E-10   6.82799505584669E-17   0.00000000000000E+00   0.00000000000000E+00
      0.00000000000000E+00   0.00000000000000E+00   1.34860437911755E-10   4.08313388608250E-14   1.34901269250616E-10
     -6.82799505584669E-17
      2.70880721148442E-01
     -2.70880721148442E-01  -2.70880721148442E-01   0.00000000000000E+00   0.00000000000000E+00  -2.03734675245014E-10
     -9.15569264483098E-17  -2.03734766801940E-10   6.82213060364136E-17   0.00000000000000E+00   0.00000000000000E+00
      0.00000000000000E+00   0.00000000000000E+00   2.03679481723916E-10   5.52850780240066E-14   2.03734766801940E-10
     -6.82213060364137E-17
      2.82963528155743E-01
     -2.82963528155743E-01  -2.82963528155743E-01   0.00000000000000E+00   0.00000000000000E+00  -2.96121407703111E-10
     -1.46094613655459E-16  -2.96121553797724E-10   6.81673224552200E-17   0.00000000000000E+00   0.00000000000000E+00
      0.00000000000000E+00   0.00000000000000E+00   2.96048515109332E-10   7.30386883918283E-14   2.96121553797724E-10
     -6.81673224552198E-17
      2.94079710602461E-01
     -2.94079710602461E-01  -2.94079710602461E-01   0.00000000000000E+00   0.00000000000000E+00  -4.15663704538494E-10
     -2.24570274794036E-16  -4.15663929108769E-10   6.81172661351796E-17   0.00000000000000E+00   0.00000000000000E+00
      0.00000000000000E+00   0.00000000000000E+00   4.15569609166554E-10   9.43199422142679E-14   4.15663929108768E-10
     -6.81172661351796E-17
      3.04158382687485E-01
     -3.04158382687485E-01  -3.04158382687485E-01   0.00000000000000E+00   0.00000000000000E+00  -5.62798005170889E-10
     -3.31626090796150E-16  -5.62798336796980E-10   6.80711998469531E-17   0.00000000000000E+00   0.00000000000000E+00
      0.00000000000000E+00   0.00000000000000E+00   5.62679480139460E-10   1.18856657520195E-13   5.62798336796981E-10
     -6.80711998469531E-17
      3.22703139323929E-01
     -3.22703139323929E-01  -3.22703139323929E-01   0.00000000000000E+00   0.00000000000000E+00  -9.71202504218709E-10
     -6.79455508725130E-16  -9.71203183674218E-10   6.79833361961933E-17   0.00000000000000E+00   0.00000000000000E+00
      0.00000000000000E+00   0.00000000000000E+00   9.71021679552479E-10   1.81504121736832E-13   9.71203183674216E-10
     -6.79833361961933E-17
      3.38527998320361E-01
     -3.38527998320361E-01  -3.38527998320361E-01   0.00000000000000E+00   0.00000000000000E+00  -1.52643884830094E-09
     -1.25310429701488E-15  -1.52644010140524E-09   6.79030197850033E-17   0.00000000000000E+00   0.00000000000000E+00
      0.00000000000000E+00   0.00000000000000E+00   1.52618031081284E-09   2.59790592398298E-13   1.52644010140524E-09
     -6.79030197850032E-17
      3.52031877997317E-01
     -3.52031877997317E-01  -3.52031877997317E-01   0.00000000000000E+00   0.00000000000000E+00  -2.22146885963940E-09
     -2.11263605182141E-15  -2.22147097227545E-09   6.78283296303279E-17   0.00000000000000E+00   0.00000000000000E+00
      0.00000000000000E+00   0.00000000000000E+00   2.22111891902873E-09   3.52053246726100E-13   2.22147097227545E-09
     -6.78283296303278E-17
      3.63915292113038E-01
     -3.63915292113038E-01  -3.63915292113038E-01   0.00000000000000E+00   0.00000000000000E+00  -3.06327292591641E-09
     -3.34533529571780E-15  -3.06327627125171E-09   6.77559598747028E-17   0.00000000000000E+00   0.00000000000000E+00
      0.00000000000000E+00   0.00000000000000E+00   3.06281685719606E-09   4.59414055650633E-13   3.06327627125171E-09
     -6.77559598747028E-17
      3.74689587577958E-01
     -3.74689587577958E-01  -3.74689587577958E-01   0.00000000000000E+00   0.00000000000000E+00  -4.07085524168727E-09
     -5.07482877007644E-15  -4.07086031651604E-09   6.76831885675612E-17   0.00000000000000E+00   0.00000000000000E+00
      0.00000000000000E+00   0.00000000000000E+00   4.07027597328347E-09   5.84343232571589E-13   4.07086031651604E-09
     -6.76831885675613E-17
      3.84458282132819E-01
     -3.84458282132819E-01  -3.84458282132819E-01   0.00000000000000E+00   0.00000000000000E+00  -5.23793710609586E-09
     -7.40475622729748E-15  -5.23794451085209E-09   6.76097255371848E-17   0.00000000000000E+00   0.00000000000000E+00
      0.00000000000000E+00   0.00000000000000E+00   5.23721791360500E-09   7.26597247078708E-13   5.23794451085208E-09
     -6.76097255371848E-17
      4.02693178635226E-01
     -4.02693178635226E-01  -4.02693178635226E-01   0.00000000000000E+00   0.00000000000000E+00  -8.26487967619066E-09
     -1.49897997870057E-14  -8.26489466599044E-09   6.74474654379464E-17   0.00000000000000E+00   0.00000000000000E+00
      0.00000000000000E+00   0.00000000000000E+00   8.26380172080167E-09   1.09294518879716E-12   8.26489466599047E-09
     -6.74474654379463E-17
      4.18983019510710E-01
     -4.18983019510710E-01  -4.18983019510710E-01   0.00000000000000E+00   0.00000000000000E+00  -1.22334724568224E-08
     -2.81447897856796E-14  -1.22335006016122E-08   6.72650990047879E-17   0.00000000000000E+00   0.00000000000000E+00
      0.00000000000000E+00   0.00000000000000E+00   1.22319184150019E-08   1.58218661032279E-12   1.22335006016122E-08
     -6.72650990047878E-17
      4.32449287967777E-01
     -4.32449287967777E-01  -4.32449287967777E-01   0.00000000000000E+00   0.00000000000000E+00  -1.67474374477362E-08
     -4.73763367070216E-14  -1.67474848240729E-08   6.70780285663817E-17   0.00000000000000E+00   0.00000000000000E+00
      0.00000000000000E+00   0.00000000000000E+00   1.67453214113398E-08   2.16341273302374E-12   1.67474848240729E-08
     -6.70780285663819E-17
      4.44120053963901E-01
     -4.44120053963901E-01  -4.44120053963901E-01   0.00000000000000E+00   0.00000000000000E+00  -2.18378964908524E-08
     -7.43970106778332E-14  -2.18379708878631E-08   6.68814262525337E-17   0.00000000000000E+00   0.00000000000000E+00
      0.00000000000000E+00   0.00000000000000E+00   2.18351121066785E-08   2.85878118459797E-12   2.18379708878631E-08
     -6.68814262525338E-17
      4.54545938253772E-01
     -4.54545938253772E-01  -4.54545938253772E-01   0.00000000000000E+00   0.00000000000000E+00  -2.75461719702437E-08
     -1.11334215095522E-13  -2.75462833044588E-08   6.66720711957204E-17   0.00000000000000E+00   0.00000000000000E+00
      0.00000000000000E+00   0.00000000000000E+00   2.75425885496369E-08   3.69475482199170E-12   2.75462833044589E-08
     -6.66720711957204E-17
      4.63859728219390E-01
     -4.63859728219390E-01  -4.63859728219390E-01   0.00000000000000E+00   0.00000000000000E+00  -3.37761128525141E-08
     -1.59592357673476E-13  -3.37762724448718E-08   6.64524446849278E-17   0.00000000000000E+00   0.00000000000000E+00
      0.00000000000000E+00   0.00000000000000E+00   3.37715931509716E-08   4.67929390015734E-12   3.37762724448718E-08
     -6.64524446849278E-17
      4.72304231121551E-01
     -4.72304231121551E-01  -4.72304231121551E-01   0.00000000000000E+00   0.00000000000000E+00  -4.05265551259608E-08
     -2.21199434244290E-13  -4.05267763253950E-08   6.62217856341832E-17   0.00000000000000E+00   0.00000000000000E+00
      0.00000000000000E+00   0.00000000000000E+00   4.05209418861099E-08   5.83443928500871E-12   4.05267763253949E-08
     -6.62217856341831E-17
      4.80185767163567E-01
     -4.80185767163567E-01  -4.80185767163567E-01   0.00000000000000E+00   0.00000000000000E+00  -4.79385958260348E-08
     -2.99976793783661E-13  -4.79388958028286E-08   6.59749602247667E-17   0.00000000000000E+00   0.00000000000000E+00
      0.00000000000000E+00   0.00000000000000E+00   4.79316844393067E-08   7.21136352188520E-12   4.79388958028286E-08
     -6.59749602247668E-17
      4.94897967775332E-01
     -4.94897967775332E-01  -4.94897967775332E-01   0.00000000000000E+00   0.00000000000000E+00  -6.52746324836497E-08
     -5.29660220094894E-13  -6.52751621438698E-08   6.54161363480051E-17   0.00000000000000E+00   0.00000000000000E+00
      0.00000000000000E+00   0.00000000000000E+00   6.52642763534960E-08   1.08857903737621E-11   6.52751621438698E-08
     -6.54161363480052E-17
      5.07648541638860E-01
     -5.07648541638860E-01  -5.07648541638860E-01   0.00000000000000E+00   0.00000000000000E+00  -8.49144704903350E-08
     -8.66768613552746E-13  -8.49153372589486E-08   6.48047772869221E-17   0.00000000000000E+00   0.00000000000000E+00
      0.00000000000000E+00   0.00000000000000E+00   8.48995062540640E-08   1.58310048845280E-11   8.49153372589485E-08
     -6.48047772869222E-17
      5.19039054290280E-01
     -5.19039054290280E-01  -5.19039054290280E-01   0.00000000000000E+00   0.00000000000000E+00  -1.07082114382639E-07
     -1.34555154700648E-12  -1.07083459934186E-07   6.41344505476700E-17   0.00000000000000E+00   0.00000000000000E+00
      0.00000000000000E+00   0.00000000000000E+00   1.07061034697250E-07   2.24252369361043E-11   1.07083459934186E-07
     -6.41344505476701E-17
      5.29062705423528E-01
     -5.29062705423528E-01  -5.29062705423528E-01   0.00000000000000E+00   0.00000000000000E+00  -1.31058195329739E-07
     -1.98097939965507E-12  -1.31060176309139E-07   6.34278045831615E-17   0.00000000000000E+00   0.00000000000000E+00
      0.00000000000000E+00   0.00000000000000E+00   1.31029399207206E-07   3.07771019331026E-11   1.31060176309139E-07
     -6.34278045831614E-17
      5.47506223508706E-01
     -5.47506223508706E-01  -5.47506223508706E-01   0.00000000000000E+00   0.00000000000000E+00  -1.89244294547842E-07
     -4.03286342168513E-12  -1.89248327411263E-07   6.17757666451226E-17   0.00000000000000E+00   0.00000000000000E+00
      0.00000000000000E+00   0.00000000000000E+00   1.89191967073185E-07   5.63603380778321E-11   1.89248327411263E-07
     -6.17757666451225E-17
      5.54760673955543E-01
     -5.54760673955543E-01  -5.54760673955543E-01   0.00000000000000E+00   0.00000000000000E+00  -2.18367044489242E-07
     -5.33182556683664E-12  -2.18372376314809E-07   6.09774650506955E-17   0.00000000000000E+00   0.00000000000000E+00
      0.00000000000000E+00   0.00000000000000E+00   2.18300368495569E-07   7.20078192403562E-11   2.18372376314809E-07
     -6.09774650506955E-17
      5.68302314789638E-01
     -5.68302314789638E-01  -5.68302314789638E-01   0.00000000000000E+00   0.00000000000000E+00  -2.84721560610755E-07
     -8.97129974479485E-12  -2.84730531910500E-07   5.92207438594874E-17   0.00000000000000E+00   0.00000000000000E+00
      0.00000000000000E+00   0.00000000000000E+00   2.84615753625915E-07   1.14778284585166E-10   2.84730531910500E-07
     -5.92207438594874E-17
      5.79135627456914E-01
     -5.79135627456914E-01  -5.79135627456914E-01   0.00000000000000E+00   0.00000000000000E+00  -3.51470002950885E-07
     -1.35881132933456E-11  -3.51483591064178E-07   5.75329961249849E-17   0.00000000000000E+00   0.00000000000000E+00
      0.00000000000000E+00   0.00000000000000E+00   3.51315772993790E-07   1.67818070387777E-10   3.51483591064178E-07
     -5.75329961249850E-17
      5.88813386773014E-01
     -5.88813386773014E-01  -5.88813386773014E-01   0.00000000000000E+00   0.00000000000000E+00  -4.23705644403256E-07
     -1.96667080122699E-11  -4.23725311111268E-07   5.57884789060716E-17   0.00000000000000E+00   0.00000000000000E+00
      0.00000000000000E+00   0.00000000000000E+00   4.23488745929308E-07   2.36565181959575E-10   4.23725311111268E-07
     -5.57884789060717E-17
      5.97845962134707E-01
     -5.97845962134707E-01  -5.97845962134707E-01   0.00000000000000E+00   0.00000000000000E+00  -5.03909551253915E-07
     -2.77354141103109E-11  -5.03937286668026E-07   5.39438060602376E-17   0.00000000000000E+00   0.00000000000000E+00
      0.00000000000000E+00   0.00000000000000E+00   5.03610551733906E-07   3.26734934119792E-10   5.03937286668026E-07
     -5.39438060602376E-17
      6.06276365805621E-01
     -6.06276365805621E-01  -6.06276365805621E-01   0.00000000000000E+00   0.00000000000000E+00  -5.91793721721891E-07
     -3.81719964155085E-11  -5.91831893718306E-07   5.20257898939851E-17   0.00000000000000E+00   0.00000000000000E+00
      0.00000000000000E+00   0.00000000000000E+00   5.91389622299555E-07   4.42271418751642E-10   5.91831893718306E-07
     -5.20257898939851E-17
      6.14144742565140E-01
     -6.14144742565140E-01  -6.14144742565140E-01   0.00000000000000E+00   0.00000000000000E+00  -6.86896868670330E-07
     -5.13448301940258E-11  -6.86948213500524E-07   5.00628479287359E-17   0.00000000000000E+00   0.00000000000000E+00
      0.00000000000000E+00   0.00000000000000E+00   6.86361205551426E-07   5.87007949096902E-10   6.86948213500523E-07
     -5.00628479287360E-17
      6.21488560874025E-01
     -6.21488560874025E-01  -6.21488560874025E-01   0.00000000000000E+00   0.00000000000000E+00  -7.88598026020880E-07
     -6.75908389685959E-11  -7.88665616859848E-07   4.80833434982702E-17   0.00000000000000E+00   0.00000000000000E+00
      0.00000000000000E+00   0.00000000000000E+00   7.87901180440177E-07   7.64436419670860E-10   7.88665616859848E-07
     -4.80833434982702E-17
      6.28342791295651E-01
     -6.28342791295651E-01  -6.28342791295651E-01   0.00000000000000E+00   0.00000000000000E+00  -8.96137427406028E-07
     -8.71934659713497E-11  -8.96224620871999E-07   4.61141052181330E-17   0.00000000000000E+00   0.00000000000000E+00
      0.00000000000000E+00   0.00000000000000E+00   8.95247143112969E-07   9.77477759030901E-10   8.96224620872000E-07
     -4.61141052181330E-17
      6.34740073022502E-01
     -6.34740073022502E-01  -6.34740073022502E-01   0.00000000000000E+00   0.00000000000000E+00  -1.00864335448481E-06
     -1.10362900743111E-10  -1.00875371738555E-06   4.41792512188151E-17   0.00000000000000E+00   0.00000000000000E+00
      0.00000000000000E+00   0.00000000000000E+00   1.00752544099744E-06   1.22827638810765E-09   1.00875371738555E-06
     -4.41792512188151E-17
      6.40710869300896E-01
     -6.40710869300896E-01  -6.40710869300896E-01   0.00000000000000E+00   0.00000000000000E+00  -1.12516324908245E-06
     -1.37220576186165E-10  -1.12530046965863E-06   4.22993828795229E-17   0.00000000000000E+00   0.00000000000000E+00
      0.00000000000000E+00   0.00000000000000E+00   1.12378242985052E-06   1.51803980811052E-09   1.12530046965863E-06
     -4.22993828795228E-17
      6.51856355687231E-01
     -6.51856355687231E-01  -6.51856355687231E-01   0.00000000000000E+00   0.00000000000000E+00  -1.37529303121159E-06
     -2.04667188477619E-10  -1.37549769840007E-06   3.86429954186183E-17   0.00000000000000E+00   0.00000000000000E+00
      0.00000000000000E+00   0.00000000000000E+00   1.37325492202984E-06   2.24277637023122E-09   1.37549769840007E-06
     -3.86429954186183E-17
      6.61218564251753E-01
     -6.61218564251753E-01  -6.61218564251753E-01   0.00000000000000E+00   0.00000000000000E+00  -1.62111684915579E-06
     -2.83888001862756E-10  -1.62140073715765E-06   3.54855954376979E-17   0.00000000000000E+00   0.00000000000000E+00
      0.00000000000000E+00   0.00000000000000E+00   1.61831002719366E-06   3.09070996399202E-09   1.62140073715765E-06
     -3.54855954376979E-17
      6.69956625578640E-01
     -6.69956625578640E-01  -6.69956625578640E-01   0.00000000000000E+00   0.00000000000000E+00  -1.88185407549937E-06
     -3.81805531316296E-10  -1.88223588103068E-06   3.25340135940207E-17   0.00000000000000E+00   0.00000000000000E+00
      0.00000000000000E+00   0.00000000000000E+00   1.87810011160492E-06   4.13576942575753E-09   1.88223588103068E-06
     -3.25340135940207E-17
      6.78112149483735E-01
     -6.78112149483735E-01  -6.78112149483735E-01   0.00000000000000E+00   0.00000000000000E+00  -2.15295148714630E-06
     -4.98624921191138E-10  -2.15345011206749E-06   2.98312392786971E-17   0.00000000000000E+00   0.00000000000000E+00
      0.00000000000000E+00   0.00000000000000E+00   2.14807033223584E-06   5.37977983164895E-09   2.15345011206749E-06
     -2.98312392786971E-17
      6.85723971795157E-01
     -6.85723971795157E-01  -6.85723971795157E-01   0.00000000000000E+00   0.00000000000000E+00  -2.42947994775007E-06
     -6.33371525023765E-10  -2.43011331927509E-06   2.73991356494187E-17   0.00000000000000E+00   0.00000000000000E+00
      0.00000000000000E+00   0.00000000000000E+00   2.42330115421140E-06   6.81216506369498E-09   2.43011331927510E-06
     -2.73991356494187E-17
      6.92828339285817E-01
     -6.92828339285817E-01  -6.92828339285817E-01   0.00000000000000E+00   0.00000000000000E+00  -2.70651774069417E-06
     -7.83951838208611E-10  -2.70730169253238E-06   2.52415390817473E-17   0.00000000000000E+00   0.00000000000000E+00
      0.00000000000000E+00   0.00000000000000E+00   2.69889107728413E-06   8.41061524824980E-09   2.70730169253238E-06
     -2.52415390817473E-17
      6.99459082277100E-01
     -6.99459082277100E-01  -6.99459082277100E-01   0.00000000000000E+00   0.00000000000000E+00  -2.97950763206253E-06
     -9.47381755111829E-10  -2.98045501381764E-06   2.33486489442679E-17   0.00000000000000E+00   0.00000000000000E+00
      0.00000000000000E+00   0.00000000000000E+00   2.97031150668909E-06   1.01435071285584E-08   2.98045501381764E-06
     -2.33486489442679E-17
      7.05647775735631E-01
     -7.05647775735631E-01  -7.05647775735631E-01   0.00000000000000E+00   0.00000000000000E+00  -3.24453337611356E-06
     -1.12012474796751E-09  -3.24565350086152E-06   2.17016154627999E-17   0.00000000000000E+00   0.00000000000000E+00
      0.00000000000000E+00   0.00000000000000E+00   3.23368002964245E-06   1.19734712190785E-08   3.24565350086153E-06
     -2.17016154627999E-17
      7.11423889630259E-01
     -7.11423889630259E-01  -7.11423889630259E-01   0.00000000000000E+00   0.00000000000000E+00  -3.49848560432108E-06
     -1.29846186746794E-09  -3.49978406618855E-06   2.02765839133745E-17   0.00000000000000E+00   0.00000000000000E+00
      0.00000000000000E+00   0.00000000000000E+00   3.48592278179685E-06   1.38612843916971E-08   3.49978406618855E-06
     -2.02765839133744E-17
      7.22514028307946E-01
     -7.22514028307946E-01  -7.22514028307946E-01   0.00000000000000E+00   0.00000000000000E+00  -3.99495420186852E-06
     -1.68251057827123E-09  -3.99663671244679E-06   1.78560619340183E-17   0.00000000000000E+00   0.00000000000000E+00
      0.00000000000000E+00   0.00000000000000E+00   3.97871369448092E-06   1.79230179658680E-08   3.99663671244679E-06
     -1.78560619340183E-17
      7.32716955891418E-01
     -7.32716955891418E-01  -7.32716955891418E-01   0.00000000000000E+00   0.00000000000000E+00  -4.44913413228265E-06
     -2.07361499082467E-09  -4.45120774727348E-06   1.59911410518471E-17   0.00000000000000E+00   0.00000000000000E+00
      0.00000000000000E+00   0.00000000000000E+00   4.42915218953310E-06   2.20555577403822E-08   4.45120774727348E-06
     -1.59911410518471E-17
      7.42239688302659E-01
     -7.42239688302659E-01  -7.42239688302659E-01   0.00000000000000E+00   0.00000000000000E+00  -4.85891562753746E-06
     -2.45772622298955E-09  -4.86137335376044E-06   1.45412332102661E-17   0.00000000000000E+00   0.00000000000000E+00
      0.00000000000000E+00   0.00000000000000E+00   4.83526192613585E-06   2.61114276246091E-08   4.86137335376046E-06
     -1.45412332102661E-17
      7.51127571886483E-01
     -7.51127571886483E-01  -7.51127571886483E-01   0.00000000000000E+00   0.00000000000000E+00  -5.22137120452548E-06
     -2.82098914782238E-09  -5.22419219367330E-06   1.34129244198144E-17   0.00000000000000E+00   0.00000000000000E+00
      0.00000000000000E+00   0.00000000000000E+00   5.19424703495745E-06   2.99451587158401E-08   5.22419219367329E-06
     -1.34129244198144E-17
      7.59422929898053E-01
     -7.59422929898053E-01  -7.59422929898053E-01   0.00000000000000E+00   0.00000000000000E+00  -5.53802661189927E-06
     -3.15542963878462E-09  -5.54118204153806E-06   1.25292430770699E-17   0.00000000000000E+00   0.00000000000000E+00
      0.00000000000000E+00   0.00000000000000E+00   5.50770876208588E-06   3.34732794521899E-08   5.54118204153807E-06
     -1.25292430770699E-17
      7.67165264042184E-01
     -7.67165264042184E-01  -7.67165264042184E-01   0.00000000000000E+00   0.00000000000000E+00  -5.81295707079393E-06
     -3.45792990411749E-09  -5.81641500069804E-06   1.18301884984587E-17   0.00000000000000E+00   0.00000000000000E+00
      0.00000000000000E+00   0.00000000000000E+00   5.77975157255934E-06   3.66634281386871E-08   5.81641500069803E-06
     -1.18301884984587E-17
      7.74391442576707E-01
     -7.74391442576707E-01  -7.74391442576707E-01   0.00000000000000E+00   0.00000000000000E+00  -6.05128979188430E-06
     -3.72866995765177E-09  -6.05501846184195E-06   1.12704561581947E-17   0.00000000000000E+00   0.00000000000000E+00
      0.00000000000000E+00   0.00000000000000E+00   6.01550056671495E-06   3.95178951270053E-08   6.05501846184196E-06
     -1.12704561581946E-17
      7.81135875875595E-01