DF-ISE text

Info {
  version   = 1.0
  type      = xyplot
  datasets  = [
    "time"
    "top OuterVoltage" "top InnerVoltage" "top QuasiFermiPotential" "top DisplacementCurrent" "top eCurrent"
    "top hCurrent" "top TotalCurrent" "top Charge" "bottom OuterVoltage" "bottom InnerVoltage"
    "bottom QuasiFermiPotential" "bottom DisplacementCurrent" "bottom eCurrent" "bottom hCurrent" "bottom TotalCurrent"
    "bottom Charge" ]
  functions = [
    Time
    OuterVoltage InnerVoltage QuasiFermiPotential DisplacementCurrent eCurrent
    hCurrent TotalCurrent Charge OuterVoltage InnerVoltage
    QuasiFermiPotential DisplacementCurrent eCurrent hCurrent TotalCurrent
    Charge ]
}

Data {
      0.00000000000000E+00
      0.00000000000000E+00   0.00000000000000E+00   0.00000000000000E+00   0.00000000000000E+00   3.49282153609924E-21
     -7.61167869078175E-31   3.49282153533807E-21   1.06324218492149E-16   0.00000000000000E+00   0.00000000000000E+00
      0.00000000000000E+00   0.00000000000000E+00  -3.49282153614495E-21   8.06881045724026E-31  -3.49282153533807E-21
     -1.06324218492149E-16
      0.00000000000000E+00
      0.00000000000000E+00   0.00000000000000E+00   0.00000000000000E+00   0.00000000000000E+00  -6.43171137558620E-18
      1.20190013592067E-29  -6.43171137557418E-18   1.06324200495744E-16   0.00000000000000E+00   0.00000000000000E+00
      0.00000000000000E+00   0.00000000000000E+00   6.43171137861088E-18  -3.03670055512065E-27   6.43171137557418E-18
     -1.06324200495744E-16
      1.00000000000000E-02
     -1.00000000000000E-02  -1.00000000000000E-02   0.00000000000000E+00   0.00000000000000E+00  -1.76563178580304E-16
     -1.28798513407779E-21  -1.76564466565438E-16   1.06081677099419E-16   0.00000000000000E+00   0.00000000000000E+00
      0.00000000000000E+00   0.00000000000000E+00   1.64755655398450E-16   1.18088111669883E-17   1.76564466565438E-16
     -1.06081677099419E-16
      2.89333333333333E-02
     -2.89333333333333E-02  -2.89333333333333E-02   0.00000000000000E+00   0.00000000000000E+00  -7.43426848688724E-16
     -7.05905062246120E-21  -7.43433907739346E-16   1.05621703681335E-16   0.00000000000000E+00   0.00000000000000E+00
      0.00000000000000E+00   0.00000000000000E+00   7.02679026401193E-16   4.07548813381522E-17   7.43433907739346E-16
     -1.05621703681335E-16
      4.63520000000000E-02
     -4.63520000000000E-02  -4.63520000000000E-02   0.00000000000000E+00   0.00000000000000E+00  -1.74945351965607E-15
      1.43315611275949E-19  -1.74931020404480E-15   1.05197599939803E-16   0.00000000000000E+00   0.00000000000000E+00
      0.00000000000000E+00   0.00000000000000E+00   1.67116351057190E-15   7.81466934728954E-17   1.74931020404480E-15
     -1.05197599939803E-16
      6.23771733333333E-02
     -6.23771733333333E-02  -6.23771733333333E-02   0.00000000000000E+00   0.00000000000000E+00  -3.45804632068064E-15
     -2.74677531735380E-20  -3.45807378843381E-15   1.04806630752092E-16   0.00000000000000E+00   0.00000000000000E+00
      0.00000000000000E+00   0.00000000000000E+00   3.33189775744276E-15   1.26176030991049E-16   3.45807378843381E-15
     -1.04806630752092E-16
      7.71203328000000E-02
     -7.71203328000000E-02  -7.71203328000000E-02   0.00000000000000E+00   0.00000000000000E+00  -6.23424945041024E-15
     -5.04739573581612E-20  -6.23429992436760E-15   1.04446260981261E-16   0.00000000000000E+00   0.00000000000000E+00
      0.00000000000000E+00   0.00000000000000E+00   6.04781119388891E-15   1.86488730478677E-16   6.23429992436758E-15
     -1.04446260981261E-16
      9.06840395093333E-02
     -9.06840395093333E-02  -9.06840395093333E-02   0.00000000000000E+00   0.00000000000000E+00  -1.05550107340994E-14
     -8.67083574450869E-20  -1.05550974424569E-14   1.04114142049653E-16   0.00000000000000E+00   0.00000000000000E+00
      0.00000000000000E+00   0.00000000000000E+00   1.02942132417006E-14   2.60884200756303E-16   1.05550974424569E-14
     -1.04114142049653E-16
      1.03343499104711E-01
     -1.03343499104711E-01  -1.03343499104711E-01   0.00000000000000E+00   0.00000000000000E+00  -1.71294750093214E-14
     -1.42490606810702E-19  -1.71296174999282E-14   1.03803660296958E-16   0.00000000000000E+00   0.00000000000000E+00
      0.00000000000000E+00   0.00000000000000E+00   1.67772866529791E-14   3.52330846949155E-16   1.71296174999282E-14
     -1.03803660296958E-16
      1.14990201932459E-01
     -1.14990201932459E-01  -1.14990201932459E-01   0.00000000000000E+00   0.00000000000000E+00  -2.66498296318867E-14
     -2.24024864317438E-19  -2.66500536567511E-14   1.03517584447474E-16   0.00000000000000E+00   0.00000000000000E+00
      0.00000000000000E+00   0.00000000000000E+00   2.61888729541872E-14   4.61180702563902E-16   2.66500536567511E-14
     -1.03517584447474E-16
      1.25860457905023E-01
     -1.25860457905023E-01  -1.25860457905023E-01   0.00000000000000E+00   0.00000000000000E+00  -4.01869905524028E-14
     -3.40941294437450E-19  -4.01873314936973E-14   1.03250204114318E-16   0.00000000000000E+00   0.00000000000000E+00
      0.00000000000000E+00   0.00000000000000E+00   3.95969358655072E-14   5.90395628190088E-16   4.01873314936973E-14
     -1.03250204114318E-16
      1.46441475879745E-01
     -1.46441475879745E-01  -1.46441475879745E-01   0.00000000000000E+00   0.00000000000000E+00  -8.72562156304138E-14
     -7.52851345609014E-19  -8.72569684817594E-14   1.02742962542018E-16   0.00000000000000E+00   0.00000000000000E+00
      0.00000000000000E+00   0.00000000000000E+00   8.63210800692730E-14   9.35888412486365E-16   8.72569684817594E-14
     -1.02742962542019E-16
      1.63180703832519E-01
     -1.63180703832519E-01  -1.63180703832519E-01   0.00000000000000E+00   0.00000000000000E+00  -1.63755302957941E-13
     -1.43301917777207E-18  -1.63756735977118E-13   1.02329432776293E-16   0.00000000000000E+00   0.00000000000000E+00
      0.00000000000000E+00   0.00000000000000E+00   1.62400078034948E-13   1.35665794217029E-15   1.63756735977118E-13
     -1.02329432776293E-16
      1.78580793549071E-01
     -1.78580793549071E-01  -1.78580793549071E-01   0.00000000000000E+00   0.00000000000000E+00  -2.92137016286663E-13
     -2.59213756787332E-18  -2.92139608424231E-13   1.01948208561584E-16   0.00000000000000E+00   0.00000000000000E+00
      0.00000000000000E+00   0.00000000000000E+00   2.90231631843422E-13   1.90797658080935E-15   2.92139608424231E-13
     -1.01948208561584E-16
      1.92748876088298E-01
     -1.92748876088298E-01  -1.92748876088298E-01   0.00000000000000E+00   0.00000000000000E+00  -4.97533436534108E-13
     -4.47488339523375E-18  -4.97537911417503E-13   1.01596820418067E-16   0.00000000000000E+00   0.00000000000000E+00
      0.00000000000000E+00   0.00000000000000E+00   4.94924623188299E-13   2.61328822920462E-15   4.97537911417504E-13
     -1.01596820418067E-16
      2.05783512024388E-01
     -2.05783512024388E-01  -2.05783512024388E-01   0.00000000000000E+00   0.00000000000000E+00  -8.11957252225774E-13
     -7.39915127638760E-18  -8.11964651377050E-13   1.01272979390412E-16   0.00000000000000E+00   0.00000000000000E+00
      0.00000000000000E+00   0.00000000000000E+00   8.08468658156765E-13   3.49599322028406E-15   8.11964651377049E-13
     -1.01272979390412E-16
      2.17775377085590E-01
     -2.17775377085590E-01  -2.17775377085590E-01   0.00000000000000E+00   0.00000000000000E+00  -1.27411279039178E-12
     -1.17623040344704E-17  -1.27412455269581E-12   1.00974564903366E-16   0.00000000000000E+00   0.00000000000000E+00
      0.00000000000000E+00   0.00000000000000E+00   1.26954608365513E-12   4.57846904068255E-15   1.27412455269581E-12
     -1.00974564903366E-16
      2.28967784476046E-01
     -2.28967784476046E-01  -2.28967784476046E-01   0.00000000000000E+00   0.00000000000000E+00  -1.94005909222824E-12
     -1.81182133452159E-17  -1.94007721044158E-12   1.00695625633602E-16   0.00000000000000E+00   0.00000000000000E+00
      0.00000000000000E+00   0.00000000000000E+00   1.93417468205650E-12   5.90252838508824E-15   1.94007721044159E-12
     -1.00695625633602E-16
      2.49860278271563E-01
     -2.49860278271563E-01  -2.49860278271563E-01   0.00000000000000E+00   0.00000000000000E+00  -4.25198444279867E-12
     -4.06262156905333E-17  -4.25202506901436E-12   1.00173841312957E-16   0.00000000000000E+00   0.00000000000000E+00
      0.00000000000000E+00   0.00000000000000E+00   4.24247131474236E-12   9.55375427201296E-15   4.25202506901437E-12
     -1.00173841312957E-16
      2.67688539643737E-01
     -2.67688539643737E-01  -2.67688539643737E-01   0.00000000000000E+00   0.00000000000000E+00  -8.30322999586120E-12
     -8.09476767437756E-17  -8.30331094353794E-12   9.97274275849429E-17   0.00000000000000E+00   0.00000000000000E+00
      0.00000000000000E+00   0.00000000000000E+00   8.28876476889533E-12   1.45461746426045E-14   8.30331094353793E-12
     -9.97274275849428E-17
      3.00017120265280E-01
     -3.00017120265280E-01  -3.00017120265280E-01   0.00000000000000E+00   0.00000000000000E+00  -2.79095731764698E-11
     -2.82631764752138E-16  -2.79098558082345E-11   9.89150286207860E-17   0.00000000000000E+00   0.00000000000000E+00
      0.00000000000000E+00   0.00000000000000E+00   2.78777734079534E-11   3.20824002811166E-14   2.79098558082345E-11
     -9.89150286207862E-17
      3.16181410576052E-01
     -3.16181410576052E-01  -3.16181410576052E-01   0.00000000000000E+00   0.00000000000000E+00  -5.11209686469636E-11
     -5.28143249528520E-16  -5.11214967902131E-11   9.85072527257630E-17   0.00000000000000E+00   0.00000000000000E+00
      0.00000000000000E+00   0.00000000000000E+00   5.10730464178588E-11   4.84503723542923E-14   5.11214967902131E-11
     -9.85072527257630E-17
      3.30405986049531E-01
     -3.30405986049531E-01  -3.30405986049531E-01   0.00000000000000E+00   0.00000000000000E+00  -8.70097963669583E-11
     -9.15595920563416E-16  -8.70107119628789E-11   9.81473594371472E-17   0.00000000000000E+00   0.00000000000000E+00
      0.00000000000000E+00   0.00000000000000E+00   8.69403331225453E-11   7.03788403335969E-14   8.70107119628789E-11
     -9.81473594371472E-17
      3.43113273472505E-01
     -3.43113273472505E-01  -3.43113273472505E-01   0.00000000000000E+00   0.00000000000000E+00  -1.39811440772370E-10
     -1.49682081179809E-15  -1.39812937593181E-10   9.78248356105089E-17   0.00000000000000E+00   0.00000000000000E+00
      0.00000000000000E+00   0.00000000000000E+00   1.39713814091097E-10   9.91235020849114E-14   1.39812937593182E-10
     -9.78248356105087E-17
      3.54803977901642E-01
     -3.54803977901642E-01  -3.54803977901642E-01   0.00000000000000E+00   0.00000000000000E+00  -2.16094414921055E-10
     -2.35266775972059E-15  -2.16096767588815E-10   9.75270365008048E-17   0.00000000000000E+00   0.00000000000000E+00
      0.00000000000000E+00   0.00000000000000E+00   2.15959879204124E-10   1.36888384690495E-13   2.16096767588815E-10
     -9.75270365008049E-17
      3.65715302035503E-01
     -3.65715302035503E-01  -3.65715302035503E-01   0.00000000000000E+00   0.00000000000000E+00  -3.24107190614156E-10
     -3.58804553493175E-15  -3.24110778659691E-10   9.72478797563359E-17   0.00000000000000E+00   0.00000000000000E+00
      0.00000000000000E+00   0.00000000000000E+00   3.23924509537408E-10   1.86269122283203E-13   3.24110778659691E-10
     -9.72478797563358E-17
      3.86083107085376E-01
     -3.86083107085376E-01  -3.86083107085376E-01   0.00000000000000E+00   0.00000000000000E+00  -6.88100231922711E-10
     -7.88877189764741E-15  -6.88108120694609E-10   9.67222035705909E-17   0.00000000000000E+00   0.00000000000000E+00
      0.00000000000000E+00   0.00000000000000E+00   6.87771416524245E-10   3.36704170363376E-13   6.88108120694608E-10
     -9.67222035705907E-17
      3.94773370573322E-01
     -3.94773370573322E-01  -3.94773370573322E-01   0.00000000000000E+00   0.00000000000000E+00  -9.46775099262695E-10
     -1.10406611613450E-14  -9.46786139923856E-10   9.64952565176019E-17   0.00000000000000E+00   0.00000000000000E+00
      0.00000000000000E+00   0.00000000000000E+00   9.46349917140268E-10   4.36222783587307E-13   9.46786139923855E-10
     -9.64952565176020E-17
      4.10995195750822E-01
     -4.10995195750822E-01  -4.10995195750822E-01   0.00000000000000E+00   0.00000000000000E+00  -1.70939664790951E-09
     -2.06773770663854E-14  -1.70941732528658E-09   9.60649053523834E-17   0.00000000000000E+00   0.00000000000000E+00
      0.00000000000000E+00   0.00000000000000E+00   1.70870362401980E-09   7.13701266780522E-13   1.70941732528658E-09
     -9.60649053523831E-17
      4.25054110904654E-01
     -4.25054110904654E-01  -4.25054110904654E-01   0.00000000000000E+00   0.00000000000000E+00  -2.83246184519804E-09
     -3.56171558380300E-14  -2.83249746235388E-09   9.56812580514865E-17   0.00000000000000E+00   0.00000000000000E+00
      0.00000000000000E+00   0.00000000000000E+00   2.83139537518475E-09   1.10208716913267E-12   2.83249746235388E-09
     -9.56812580514868E-17
      4.37613408442078E-01
     -4.37613408442078E-01  -4.37613408442078E-01   0.00000000000000E+00   0.00000000000000E+00  -4.41339357700564E-09
     -5.78931465587026E-14  -4.41345147015220E-09   9.53255337166571E-17   0.00000000000000E+00   0.00000000000000E+00
      0.00000000000000E+00   0.00000000000000E+00   4.41181935790202E-09   1.63211225018493E-12   4.41345147015221E-09
     -9.53255337166571E-17
      4.48833047575510E-01
     -4.48833047575510E-01  -4.48833047575510E-01   0.00000000000000E+00   0.00000000000000E+00  -6.50761334549324E-09
     -8.93483064964098E-14  -6.50770269379974E-09   9.49926351889186E-17   0.00000000000000E+00   0.00000000000000E+00
      0.00000000000000E+00   0.00000000000000E+00   6.50537916888636E-09   2.32352491338027E-12   6.50770269379974E-09
     -9.49926351889185E-17
      4.59304710766713E-01
     -4.59304710766713E-01  -4.59304710766713E-01   0.00000000000000E+00   0.00000000000000E+00  -9.27451357706359E-09
     -1.33959843984965E-13  -9.27464753690758E-09   9.46640889312660E-17   0.00000000000000E+00   0.00000000000000E+00
      0.00000000000000E+00   0.00000000000000E+00   9.27141246735516E-09   3.23506955242208E-12   9.27464753690759E-09
     -9.46640889312661E-17
      4.68938640902620E-01
     -4.68938640902620E-01  -4.68938640902620E-01   0.00000000000000E+00   0.00000000000000E+00  -1.27457783444190E-08
     -1.94439656055097E-13  -1.27459727840751E-08   9.43416251196352E-17   0.00000000000000E+00   0.00000000000000E+00
      0.00000000000000E+00   0.00000000000000E+00   1.27415829721133E-08   4.38981196178799E-12   1.27459727840751E-08
     -9.43416251196350E-17
      4.77801856627655E-01
     -4.77801856627655E-01  -4.77801856627655E-01   0.00000000000000E+00   0.00000000000000E+00  -1.69485619243064E-08
     -2.73931795685688E-13  -1.69488358561021E-08   9.40230455370925E-17   0.00000000000000E+00   0.00000000000000E+00
      0.00000000000000E+00   0.00000000000000E+00   1.69430193991157E-08   5.81645698638905E-12   1.69488358561021E-08
     -9.40230455370927E-17
      4.86074191304353E-01
     -4.86074191304353E-01  -4.86074191304353E-01   0.00000000000000E+00   0.00000000000000E+00  -2.19603901655330E-08
     -3.77196721845879E-13  -2.19607673622549E-08   9.37021587754771E-17   0.00000000000000E+00   0.00000000000000E+00
      0.00000000000000E+00   0.00000000000000E+00   2.19531987868454E-08   7.56857540945334E-12   2.19607673622549E-08
     -9.37021587754771E-17
      4.93795037002606E-01
     -4.93795037002606E-01  -4.93795037002606E-01   0.00000000000000E+00   0.00000000000000E+00  -2.77928416269513E-08
     -5.08420257160809E-13  -2.77933500472085E-08   9.33778095074854E-17   0.00000000000000E+00   0.00000000000000E+00
      0.00000000000000E+00   0.00000000000000E+00   2.77836647083447E-08   9.68533886381852E-12   2.77933500472085E-08
     -9.33778095074854E-17
      5.01001159654308E-01
     -5.01001159654308E-01  -5.01001159654308E-01   0.00000000000000E+00   0.00000000000000E+00  -3.44360074097376E-08
     -6.71776571467103E-13  -3.44366791863091E-08   9.30493797407156E-17   0.00000000000000E+00   0.00000000000000E+00
      0.00000000000000E+00   0.00000000000000E+00   3.44244745467933E-08   1.22046395158672E-11   3.44366791863092E-08
     -9.30493797407154E-17
      5.07726874129230E-01
     -5.07726874129230E-01  -5.07726874129230E-01   0.00000000000000E+00   0.00000000000000E+00  -4.18612331885737E-08
     -8.71265339165895E-13  -4.18621044539129E-08   9.27167238665091E-17   0.00000000000000E+00   0.00000000000000E+00
      0.00000000000000E+00   0.00000000000000E+00   4.18469426067744E-08   1.51618471385388E-11   4.18621044539129E-08
     -9.27167238665091E-17
      5.20281541149084E-01
     -5.20281541149084E-01  -5.20281541149084E-01   0.00000000000000E+00   0.00000000000000E+00  -5.95496373840920E-08
     -1.41551299517147E-12  -5.95510528970871E-08   9.20147343813917E-17   0.00000000000000E+00   0.00000000000000E+00
      0.00000000000000E+00   0.00000000000000E+00   5.95282312031782E-08   2.28216939089367E-11   5.95510528970871E-08
     -9.20147343813920E-17
      5.30157879204702E-01
     -5.30157879204702E-01  -5.30157879204702E-01   0.00000000000000E+00   0.00000000000000E+00  -7.77563387423281E-08
     -2.07337647359377E-12  -7.77584121188017E-08   9.13725607207599E-17   0.00000000000000E+00   0.00000000000000E+00
      0.00000000000000E+00   0.00000000000000E+00   7.77267918831298E-08   3.16202356718997E-11   7.77584121188017E-08
     -9.13725607207600E-17
      5.39375794723280E-01
     -5.39375794723280E-01  -5.39375794723280E-01   0.00000000000000E+00   0.00000000000000E+00  -9.89690377608518E-08
     -2.96042410017664E-12  -9.89719981849520E-08   9.06859579531569E-17   0.00000000000000E+00   0.00000000000000E+00
      0.00000000000000E+00   0.00000000000000E+00   9.89289566085146E-08   4.30415764373111E-11   9.89719981849520E-08
     -9.06859579531571E-17
      5.47979182540619E-01
     -5.47979182540619E-01  -5.47979182540619E-01   0.00000000000000E+00   0.00000000000000E+00  -1.23185741773163E-07
     -4.12739951088913E-12  -1.23189869172674E-07   8.99551683627447E-17   0.00000000000000E+00   0.00000000000000E+00
      0.00000000000000E+00   0.00000000000000E+00   1.23132257613597E-07   5.76115590768875E-11   1.23189869172674E-07
     -8.99551683627447E-17
      5.64038839799651E-01
     -5.64038839799651E-01  -5.64038839799651E-01   0.00000000000000E+00   0.00000000000000E+00  -1.82683288430683E-07
     -7.67246466780318E-12  -1.82690960895350E-07   8.83071961378454E-17   0.00000000000000E+00   0.00000000000000E+00
      0.00000000000000E+00   0.00000000000000E+00   1.82590696220906E-07   1.00264674444509E-10   1.82690960895350E-07
     -8.83071961378454E-17
      5.75173535499247E-01
     -5.75173535499247E-01  -5.75173535499247E-01   0.00000000000000E+00   0.00000000000000E+00  -2.37736100356927E-07
     -1.17887980400317E-11  -2.37747889154967E-07   8.68997090249312E-17   0.00000000000000E+00   0.00000000000000E+00
      0.00000000000000E+00   0.00000000000000E+00   2.37599591248784E-07   1.48297906182847E-10   2.37747889154967E-07
     -8.68997090249311E-17
      5.85565918152203E-01
     -5.85565918152203E-01  -5.85565918152203E-01   0.00000000000000E+00   0.00000000000000E+00  -3.02083224704558E-07
     -1.75960449722709E-11  -3.02100820749530E-07   8.53482776700279E-17   0.00000000000000E+00   0.00000000000000E+00
      0.00000000000000E+00   0.00000000000000E+00   3.01886088337972E-07   2.14732411558271E-10   3.02100820749530E-07
     -8.53482776700279E-17
      5.95265475294963E-01
     -5.95265475294963E-01  -5.95265475294963E-01   0.00000000000000E+00   0.00000000000000E+00  -3.75926772830192E-07
     -2.55616106966007E-11  -3.75952334440889E-07   8.36596430362062E-17   0.00000000000000E+00   0.00000000000000E+00
      0.00000000000000E+00   0.00000000000000E+00   3.75647852491998E-07   3.04481948890745E-10   3.75952334440889E-07
     -8.36596430362061E-17
      6.04318395294871E-01
     -6.04318395294871E-01  -6.04318395294871E-01   0.00000000000000E+00   0.00000000000000E+00  -4.59297493764777E-07
     -3.62036027780015E-11  -4.59333697367555E-07   8.18454809591029E-17   0.00000000000000E+00   0.00000000000000E+00
      0.00000000000000E+00   0.00000000000000E+00   4.58910716617555E-07   4.22980749999786E-10   4.59333697367555E-07
     -8.18454809591029E-17
      6.12767787294786E-01
     -6.12767787294786E-01  -6.12767787294786E-01   0.00000000000000E+00   0.00000000000000E+00  -5.52053456419797E-07
     -5.00747241799130E-11  -5.52103531143977E-07   7.99217332202936E-17   0.00000000000000E+00   0.00000000000000E+00
      0.00000000000000E+00   0.00000000000000E+00   5.51527517060721E-07   5.76014083256236E-10   5.52103531143977E-07
     -7.99217332202936E-17
      6.20653886494706E-01
     -6.20653886494706E-01  -6.20653886494706E-01   0.00000000000000E+00   0.00000000000000E+00  -6.53884906704828E-07
     -6.77415451964926E-11  -6.53952648250024E-07   7.79076899265371E-17   0.00000000000000E+00   0.00000000000000E+00
      0.00000000000000E+00   0.00000000000000E+00   6.53183147221916E-07   7.69501028107778E-10   6.53952648250024E-07
     -7.79076899265371E-17
      6.28014245747965E-01
     -6.28014245747965E-01  -6.28014245747965E-01   0.00000000000000E+00   0.00000000000000E+00  -7.64325024510093E-07
     -8.97605456790817E-11  -7.64414785055772E-07   7.58249141106095E-17   0.00000000000000E+00   0.00000000000000E+00
      0.00000000000000E+00   0.00000000000000E+00   7.63405541411279E-07   1.00924364449274E-09   7.64414785055772E-07
     -7.58249141106094E-17
      6.34883914384340E-01
     -6.34883914384340E-01  -6.34883914384340E-01   0.00000000000000E+00   0.00000000000000E+00  -8.82765877949128E-07
     -1.16652639659711E-10  -8.82882530588788E-07   7.36961117420097E-17   0.00000000000000E+00   0.00000000000000E+00
      0.00000000000000E+00   0.00000000000000E+00   8.81581869697448E-07   1.30066089134120E-09   8.82882530588789E-07
     -7.36961117420096E-17
      6.41295605111623E-01
     -6.41295605111623E-01  -6.41295605111623E-01   0.00000000000000E+00   0.00000000000000E+00  -1.00847853566494E-06
     -1.48878155471531E-10  -1.00862741382041E-06   7.15440470455759E-17   0.00000000000000E+00   0.00000000000000E+00
      0.00000000000000E+00   0.00000000000000E+00   1.00697888628247E-06   1.64852753794690E-09   1.00862741382041E-06
     -7.15440470455759E-17
      6.53264094469219E-01
     -6.53264094469219E-01  -6.53264094469219E-01   0.00000000000000E+00   0.00000000000000E+00  -1.28874281773930E-06
     -2.34235594784926E-10  -1.28897705333408E-06   6.70989115016957E-17   0.00000000000000E+00   0.00000000000000E+00
      0.00000000000000E+00   0.00000000000000E+00   1.28641142691386E-06   2.56562642022625E-09   1.28897705333408E-06
     -6.70989115016956E-17
      6.64434684536308E-01
     -6.64434684536308E-01  -6.64434684536308E-01   0.00000000000000E+00   0.00000000000000E+00  -1.61399004081855E-06
     -3.56397189318420E-10  -1.61434643800787E-06   6.24690212874015E-17   0.00000000000000E+00   0.00000000000000E+00
      0.00000000000000E+00   0.00000000000000E+00   1.61047440037039E-06   3.87203763748688E-09   1.61434643800787E-06
     -6.24690212874015E-17
      6.74860568598925E-01
     -6.74860568598925E-01  -6.74860568598925E-01   0.00000000000000E+00   0.00000000000000E+00  -1.98436843822146E-06
     -5.25294752752205E-10  -1.98489373297421E-06   5.77809128847105E-17   0.00000000000000E+00   0.00000000000000E+00
      0.00000000000000E+00   0.00000000000000E+00   1.97922179615448E-06   5.67193681972836E-09   1.98489373297421E-06
     -5.77809128847104E-17
      6.84591393724034E-01
     -6.84591393724034E-01  -6.84591393724034E-01   0.00000000000000E+00   0.00000000000000E+00  -2.39857376811496E-06
     -7.51179206584330E-10  -2.39932494732155E-06   5.31580869093403E-17   0.00000000000000E+00   0.00000000000000E+00
      0.00000000000000E+00   0.00000000000000E+00   2.39125221264411E-06   8.07273467744549E-09   2.39932494732155E-06
     -5.31580869093402E-17
      6.93673497174135E-01
     -6.93673497174135E-01  -6.93673497174135E-01   0.00000000000000E+00   0.00000000000000E+00  -2.85380463666845E-06
     -1.04378777982312E-09  -2.85484842444828E-06   4.87089930336554E-17   0.00000000000000E+00   0.00000000000000E+00
      0.00000000000000E+00   0.00000000000000E+00   2.84367208669063E-06   1.11763377576537E-08   2.85484842444828E-06
     -4.87089930336554E-17
      7.02150127060897E-01
     -7.02150127060897E-01  -7.02150127060897E-01   0.00000000000000E+00   0.00000000000000E+00  -3.34583159394920E-06
     -1.41140725249966E-09  -3.34724300120170E-06   4.45188452983148E-17   0.00000000000000E+00   0.00000000000000E+00
      0.00000000000000E+00   0.00000000000000E+00   3.33217367314313E-06   1.50693280585781E-08   3.34724300120170E-06
     -4.45188452983148E-17
      7.10061648288541E-01
     -7.10061648288541E-01  -7.10061648288541E-01   0.00000000000000E+00   0.00000000000000E+00  -3.86918310642189E-06
     -1.85997137944164E-09  -3.87104307780133E-06   4.06460722958443E-17   0.00000000000000E+00   0.00000000000000E+00
      0.00000000000000E+00   0.00000000000000E+00   3.85122956714106E-06   1.98135106602756E-08   3.87104307780134E-06
     -4.06460722958444E-17
      7.17445734767675E-01
     -7.17445734767675E-01  -7.17445734767675E-01   0.00000000000000E+00   0.00000000000000E+00  -4.41743386041932E-06
     -2.39234266747841E-09  -4.41982620308680E-06   3.71229600341532E-17   0.00000000000000E+00   0.00000000000000E+00
      0.00000000000000E+00   0.00000000000000E+00   4.39438779953853E-06   2.54384035482750E-08   4.41982620308680E-06
     -3.71229600341532E-17
      7.24337548814867E-01
     -7.24337548814867E-01  -7.24337548814867E-01   0.00000000000000E+00   0.00000000000000E+00  -4.98356420424849E-06
     -3.00790296304152E-09  -4.98657210721153E-06   3.39592530430523E-17   0.00000000000000E+00   0.00000000000000E+00
      0.00000000000000E+00   0.00000000000000E+00   4.95463513460765E-06   3.19369726038877E-08   4.98657210721153E-06
     -3.39592530430524E-17
      7.37202268369626E-01
     -7.37202268369626E-01  -7.37202268369626E-01   0.00000000000000E+00   0.00000000000000E+00  -6.18371515128254E-06
     -4.52828919571485E-09  -6.18824344047825E-06   2.84958389693773E-17   0.00000000000000E+00   0.00000000000000E+00
      0.00000000000000E+00   0.00000000000000E+00   6.14027099330937E-06   4.79724471688667E-08   6.18824344047824E-06
     -2.84958389693773E-17
      7.49209339954068E-01
     -7.49209339954068E-01  -7.49209339954068E-01   0.00000000000000E+00   0.00000000000000E+00  -7.46641495210643E-06
     -6.46598084304035E-09  -7.47288093294947E-06   2.40345041990692E-17   0.00000000000000E+00   0.00000000000000E+00
      0.00000000000000E+00   0.00000000000000E+00   7.40449117110579E-06   6.83897618436802E-08   7.47288093294947E-06
     -2.40345041990692E-17
      7.60415940099546E-01
     -7.60415940099546E-01  -7.60415940099546E-01   0.00000000000000E+00   0.00000000000000E+00  -8.78671246376630E-06
     -8.78368932184716E-09  -8.79549615308815E-06   2.04840886585129E-17   0.00000000000000E+00   0.00000000000000E+00
      0.00000000000000E+00   0.00000000000000E+00   8.70270201652714E-06   9.27941365610166E-08   8.79549615308816E-06
     -2.04840886585129E-17
      7.70875433568660E-01
     -7.70875433568660E-01  -7.70875433568660E-01   0.00000000000000E+00   0.00000000000000E+00  -1.00998048519665E-05
     -1.13996239938829E-08  -1.01112044759604E-05   1.77021876222104E-17   0.00000000000000E+00   0.00000000000000E+00
      0.00000000000000E+00   0.00000000000000E+00   9.99088028125084E-06   1.20324194709552E-07   1.01112044759604E-05
     -1.77021876222103E-17
      7.80637627473166E-01
     -7.80637627473166E-01  -7.80637627473166E-01   0.00000000000000E+00   0.00000000000000E+00  -1.13673518637052E-05
     -1.42056578031614E-08  -1.13815575215084E-05   1.55375241978717E-17   0.00000000000000E+00   0.00000000000000E+00
      0.00000000000000E+00   0.00000000000000E+00   1.12317145331105E-05   1.49842988397890E-07   1.13815575215084E-05
     -1.55375241978717E-17
      7.89749008450704E-01
     -7.89749008450704E-01  -7.89749008450704E-01   0.00000000000000E+00   0.00000000000000E+00  -1.25612140145649E-05
     -1.70894439944682E-08  -1.25783034585594E-05   1.38535225971614E-17   0.00000000000000E+00   0.00000000000000E+00
      0.00000000000000E+00   0.00000000000000E+00   1.23981331849676E-05   1.80170273591797E-07   1.25783034585594E-05
     -1.38535225971614E-17
      7.98252964029741E-01
     -7.98252964029741E-01  -7.98252964029741E-01   0.00000000000000E+00   0.00000000000000E+00  -1.36642755729539E-05
     -1.99522691758041E-08  -1.36842278421297E-05   1.25373267486645E-17   0.00000000000000E+00   0.00000000000000E+00
      0.00000000000000E+00   0.00000000000000E+00   1.34739580973574E-05   2.10269744772275E-07   1.36842278421297E-05
     -1.25373267486645E-17
      8.06189989236841E-01
     -8.06189989236841E-01  -8.06189989236841E-01   0.00000000000000E+00   0.00000000000000E+00  -1.46691059680793E-05
     -2.27186963012997E-08  -1.46918246643806E-05   1.15003643306793E-17   0.00000000000000E+00   0.00000000000000E+00
      0.00000000000000E+00   0.00000000000000E+00   1.44524746651357E-05   2.39349999244858E-07   1.46918246643806E-05
     -1.15003643306793E-17
      8.13597879430135E-01
     -8.13597879430135E-01  -8.13597879430135E-01   0.00000000000000E+00   0.00000000000000E+00  -1.55755769476764E-05
     -2.53384845055283E-08  -1.56009154321819E-05   1.06751566213917E-17   0.00000000000000E+00   0.00000000000000E+00
      0.00000000000000E+00   0.00000000000000E+00   1.53340309934792E-05   2.66884438702805E-07   1.56009154321820E-05
     -1.06751566213917E-17
      8.27228397385795E-01