DF-ISE text

Info {
  version   = 1.0
  type      = xyplot
  datasets  = [
    "time"
    "top OuterVoltage" "top InnerVoltage" "top QuasiFermiPotential" "top DisplacementCurrent" "top eCurrent"
    "top hCurrent" "top TotalCurrent" "top Charge" "bottom OuterVoltage" "bottom InnerVoltage"
    "bottom QuasiFermiPotential" "bottom DisplacementCurrent" "bottom eCurrent" "bottom hCurrent" "bottom TotalCurrent"
    "bottom Charge" ]
  functions = [
    Time
    OuterVoltage InnerVoltage QuasiFermiPotential DisplacementCurrent eCurrent
    hCurrent TotalCurrent Charge OuterVoltage InnerVoltage
    QuasiFermiPotential DisplacementCurrent eCurrent hCurrent TotalCurrent
    Charge ]
}

Data {
      0.00000000000000E+00
      0.00000000000000E+00   0.00000000000000E+00   0.00000000000000E+00   0.00000000000000E+00   1.24125636101955E-21
     -5.01592717003590E-30   1.24125635600363E-21   5.21241511404248E-17   0.00000000000000E+00   0.00000000000000E+00
      0.00000000000000E+00   0.00000000000000E+00  -1.24125636121848E-21   5.21485347861191E-30  -1.24125635600363E-21
     -5.21241511404247E-17
      0.00000000000000E+00
      0.00000000000000E+00   0.00000000000000E+00   0.00000000000000E+00   0.00000000000000E+00   3.07927949510979E-20
     -1.18757268000933E-30   3.07927949499104E-20   5.21241511410903E-17   0.00000000000000E+00   0.00000000000000E+00
      0.00000000000000E+00   0.00000000000000E+00  -3.07927949511394E-20   1.22914996639172E-30  -3.07927949499103E-20
     -5.21241511410902E-17
      1.00000000000000E-02
     -1.00000000000000E-02  -1.00000000000000E-02   0.00000000000000E+00   0.00000000000000E+00  -9.25445470045962E-15
     -1.28410860274983E-21  -9.25445598456822E-15   5.19890810430008E-17   0.00000000000000E+00   0.00000000000000E+00
      0.00000000000000E+00   0.00000000000000E+00   9.22064507730735E-15   3.38109072608700E-17   9.25445598456822E-15
     -5.19890810430006E-17
      1.93333333333333E-02
     -1.93333333333333E-02  -1.93333333333333E-02   0.00000000000000E+00   0.00000000000000E+00  -2.12050981603026E-14
     -3.02137380737211E-21  -2.12051011816764E-14   5.18642581274118E-17   0.00000000000000E+00   0.00000000000000E+00
      0.00000000000000E+00   0.00000000000000E+00   2.11332817722527E-14   7.18194094237201E-17   2.12051011816764E-14
     -5.18642581274117E-17
      3.70044444444445E-02
     -3.70044444444445E-02  -3.70044444444445E-02   0.00000000000000E+00   0.00000000000000E+00  -5.74983271638037E-14
     -8.62603316357688E-21  -5.74983357898368E-14   5.16312632990156E-17   0.00000000000000E+00   0.00000000000000E+00
      0.00000000000000E+00   0.00000000000000E+00   5.73316421334046E-14   1.66693656432193E-16   5.74983357898368E-14
     -5.16312632990156E-17
      5.23194074074074E-02
     -5.23194074074074E-02  -5.23194074074074E-02   0.00000000000000E+00   0.00000000000000E+00  -1.12871447128723E-13
     -6.02344349179522E-22  -1.12871447731068E-13   5.14329246931474E-17   0.00000000000000E+00   0.00000000000000E+00
      0.00000000000000E+00   0.00000000000000E+00   1.12588729748978E-13   2.82717982089711E-16   1.12871447731068E-13
     -5.14329246931474E-17
      6.64091733333333E-02
     -6.64091733333333E-02  -6.64091733333333E-02   0.00000000000000E+00   0.00000000000000E+00  -1.97535567243772E-13
     -3.24297925800861E-20  -1.97535599673565E-13   5.12534463371762E-17   0.00000000000000E+00   0.00000000000000E+00
      0.00000000000000E+00   0.00000000000000E+00   1.97106426047580E-13   4.29173625985049E-16   1.97535599673565E-13
     -5.12534463371763E-17
      7.93717579851852E-02
     -7.93717579851852E-02  -7.93717579851852E-02   0.00000000000000E+00   0.00000000000000E+00  -3.21849205916882E-13
     -5.50838211627962E-20  -3.21849261000703E-13   5.10908923903742E-17   0.00000000000000E+00   0.00000000000000E+00
      0.00000000000000E+00   0.00000000000000E+00   3.21238980892615E-13   6.10280108088147E-16   3.21849261000703E-13
     -5.10908923903741E-17
      9.12973358648889E-02
     -9.12973358648889E-02  -9.12973358648889E-02   0.00000000000000E+00   0.00000000000000E+00  -4.97546620072552E-13
     -8.85794089187866E-20  -4.97546708651961E-13   5.09435362147562E-17   0.00000000000000E+00   0.00000000000000E+00
      0.00000000000000E+00   0.00000000000000E+00   4.96717077195042E-13   8.29631456918824E-16   4.97546708651960E-13
     -5.09435362147562E-17
      1.02427875219279E-01
     -1.02427875219279E-01  -1.02427875219279E-01   0.00000000000000E+00   0.00000000000000E+00  -7.41393406385398E-13
     -1.37099699821017E-19  -7.41393543485097E-13   5.08079137445307E-17   0.00000000000000E+00   0.00000000000000E+00
      0.00000000000000E+00   0.00000000000000E+00   7.40299284344905E-13   1.09425914019316E-15   7.41393543485098E-13
     -5.08079137445307E-17
      1.12816378616710E-01
     -1.12816378616710E-01  -1.12816378616710E-01   0.00000000000000E+00   0.00000000000000E+00  -1.07055411057563E-12
     -2.05349260064361E-19  -1.07055431592489E-12   5.06830039776093E-17   0.00000000000000E+00   0.00000000000000E+00
      0.00000000000000E+00   0.00000000000000E+00   1.06914582465267E-12   1.40849127221452E-15   1.07055431592489E-12
     -5.06830039776094E-17
      1.22512315120979E-01
     -1.22512315120979E-01  -1.22512315120979E-01   0.00000000000000E+00   0.00000000000000E+00  -1.50349719557551E-12
     -2.98786615753318E-19  -1.50349749436212E-12   5.05678801874188E-17   0.00000000000000E+00   0.00000000000000E+00
      0.00000000000000E+00   0.00000000000000E+00   1.50172146342003E-12   1.77603094209096E-15   1.50349749436212E-12
     -5.05678801874187E-17
      1.31691135011686E-01
     -1.31691135011686E-01  -1.31691135011686E-01   0.00000000000000E+00   0.00000000000000E+00  -2.06858445885359E-12
     -4.25643304959126E-19  -2.06858488449690E-12   5.04601934156869E-17   0.00000000000000E+00   0.00000000000000E+00
      0.00000000000000E+00   0.00000000000000E+00   2.06637836469932E-12   2.20651979758247E-15   2.06858488449690E-12
     -5.04601934156870E-17
      1.49069700671426E-01
     -1.49069700671426E-01  -1.49069700671426E-01   0.00000000000000E+00   0.00000000000000E+00  -3.76378624708562E-12
     -8.75028888251523E-19  -3.76378712211451E-12   5.02597457388712E-17   0.00000000000000E+00   0.00000000000000E+00
      0.00000000000000E+00   0.00000000000000E+00   3.76047406745091E-12   3.31305466359025E-15   3.76378712211450E-12
     -5.02597457388711E-17
      1.64594552660794E-01
     -1.64594552660794E-01  -1.64594552660794E-01   0.00000000000000E+00   0.00000000000000E+00  -6.38912956773675E-12
     -1.48895558317980E-18  -6.38913105669233E-12   5.00844395319746E-17   0.00000000000000E+00   0.00000000000000E+00
      0.00000000000000E+00   0.00000000000000E+00   6.38438237163165E-12   4.74868506069841E-15   6.38913105669234E-12
     -5.00844395319747E-17
      1.78877416491012E-01
     -1.78877416491012E-01  -1.78877416491012E-01   0.00000000000000E+00   0.00000000000000E+00  -1.03500786080433E-11
     -2.61476855787518E-18  -1.03500812228118E-11   4.99262150877542E-17   0.00000000000000E+00   0.00000000000000E+00
      0.00000000000000E+00   0.00000000000000E+00   1.03434768745750E-11   6.60434823680929E-15   1.03500812228118E-11
     -4.99262150877542E-17
      1.92017651214813E-01
     -1.92017651214813E-01  -1.92017651214813E-01   0.00000000000000E+00   0.00000000000000E+00  -1.60703802686741E-11
     -4.33860951029084E-18  -1.60703846072836E-11   4.97831403933222E-17   0.00000000000000E+00   0.00000000000000E+00
      0.00000000000000E+00   0.00000000000000E+00   1.60614433499158E-11   8.94125736775511E-15   1.60703846072836E-11
     -4.97831403933221E-17
      2.04106667160710E-01
     -2.04106667160710E-01  -2.04106667160710E-01   0.00000000000000E+00   0.00000000000000E+00  -2.40081020060864E-11
     -6.91700997558750E-18  -2.40081089230964E-11   4.96535108635217E-17   0.00000000000000E+00   0.00000000000000E+00
      0.00000000000000E+00   0.00000000000000E+00   2.39962951531300E-11   1.18137699663938E-14   2.40081089230964E-11
     -4.96535108635217E-17
      2.15228561830935E-01
     -2.15228561830935E-01  -2.15228561830935E-01   0.00000000000000E+00   0.00000000000000E+00  -3.46286773298298E-11
     -1.06260144716115E-17  -3.46286879558443E-11   4.95358247414999E-17   0.00000000000000E+00   0.00000000000000E+00
      0.00000000000000E+00   0.00000000000000E+00   3.46134220567037E-11   1.52658991407570E-14   3.46286879558445E-11
     -4.95358247414999E-17
      2.25460704927542E-01
     -2.25460704927542E-01  -2.25460704927542E-01   0.00000000000000E+00   0.00000000000000E+00  -4.83744220314916E-11
     -1.57772405919390E-17  -4.83744378087322E-11   4.94287608325129E-17   0.00000000000000E+00   0.00000000000000E+00
      0.00000000000000E+00   0.00000000000000E+00   4.83551093244253E-11   1.93284843069316E-14   4.83744378087323E-11
     -4.94287608325129E-17
      2.44287848225299E-01
     -2.44287848225299E-01  -2.44287848225299E-01   0.00000000000000E+00   0.00000000000000E+00  -8.88328715024259E-11
     -3.26626314585700E-17  -8.88329041650573E-11   4.92342701931810E-17   0.00000000000000E+00   0.00000000000000E+00
      0.00000000000000E+00   0.00000000000000E+00   8.88030582047459E-11   2.98459603116126E-14   8.88329041650575E-11
     -4.92342701931811E-17
      2.60855734327325E-01
     -2.60855734327325E-01  -2.60855734327325E-01   0.00000000000000E+00   0.00000000000000E+00  -1.50352298699518E-10
     -6.19806233008676E-17  -1.50352360680142E-10   4.90649182480601E-17   0.00000000000000E+00   0.00000000000000E+00
      0.00000000000000E+00   0.00000000000000E+00   1.50308608697485E-10   4.37519826564086E-14   1.50352360680142E-10
     -4.90649182480601E-17
      2.75877284393162E-01
     -2.75877284393162E-01  -2.75877284393162E-01   0.00000000000000E+00   0.00000000000000E+00  -2.40392670403976E-10
     -1.10800605343886E-16  -2.40392781204582E-10   4.89116919558599E-17   0.00000000000000E+00   0.00000000000000E+00
      0.00000000000000E+00   0.00000000000000E+00   2.40330906619551E-10   6.18745850302057E-14   2.40392781204582E-10
     -4.89116919558599E-17
      2.89496823119521E-01
     -2.89496823119521E-01  -2.89496823119521E-01   0.00000000000000E+00   0.00000000000000E+00  -3.65265556448513E-10
     -1.87630387256454E-16  -3.65265744078900E-10   4.87718203322079E-17   0.00000000000000E+00   0.00000000000000E+00
      0.00000000000000E+00   0.00000000000000E+00   3.65181072489155E-10   8.46715897445841E-14   3.65265744078900E-10
     -4.87718203322078E-17
      3.02026798747771E-01
     -3.02026798747771E-01  -3.02026798747771E-01   0.00000000000000E+00   0.00000000000000E+00  -5.33203737225540E-10
     -3.04630582848115E-16  -5.33204041856123E-10   4.86410667001300E-17   0.00000000000000E+00   0.00000000000000E+00
      0.00000000000000E+00   0.00000000000000E+00   5.33091137723152E-10   1.12904132969530E-13   5.33204041856122E-10
     -4.86410667001301E-17
      3.13554376325761E-01
     -3.13554376325761E-01  -3.13554376325761E-01   0.00000000000000E+00   0.00000000000000E+00  -7.50570335434719E-10
     -4.75785279995724E-16  -7.50570811219999E-10   4.85177051578109E-17   0.00000000000000E+00   0.00000000000000E+00
      0.00000000000000E+00   0.00000000000000E+00   7.50423831214602E-10   1.46980005395990E-13   7.50570811219998E-10
     -4.85177051578109E-17
      3.24006046663139E-01
     -3.24006046663139E-01  -3.24006046663139E-01   0.00000000000000E+00   0.00000000000000E+00  -1.01782757565246E-09
     -7.12816455611467E-16  -1.01782828846891E-09   4.84020354393631E-17   0.00000000000000E+00   0.00000000000000E+00
      0.00000000000000E+00   0.00000000000000E+00   1.01764179016502E-09   1.86498303891376E-13   1.01782828846891E-09
     -4.84020354393631E-17
      3.33621583373526E-01
     -3.33621583373526E-01  -3.33621583373526E-01   0.00000000000000E+00   0.00000000000000E+00  -1.34051803921598E-09
     -1.03396626218864E-15  -1.34051907318224E-09   4.82911837337999E-17   0.00000000000000E+00   0.00000000000000E+00
      0.00000000000000E+00   0.00000000000000E+00   1.34028712216767E-09   2.31951014576689E-13   1.34051907318224E-09
     -4.82911837337999E-17
      3.51570585232916E-01
     -3.51570585232916E-01  -3.51570585232916E-01   0.00000000000000E+00   0.00000000000000E+00  -2.21204383602782E-09
     -2.07017266463428E-15  -2.21204590620048E-09   4.80681105309874E-17   0.00000000000000E+00   0.00000000000000E+00
      0.00000000000000E+00   0.00000000000000E+00   2.21169831245873E-09   3.47593741742347E-13   2.21204590620048E-09
     -4.80681105309874E-17
      3.66887066819596E-01
     -3.66887066819596E-01  -3.66887066819596E-01   0.00000000000000E+00   0.00000000000000E+00  -3.34176487422653E-09
     -3.74359785717750E-15  -3.34176861782439E-09   4.78541556479170E-17   0.00000000000000E+00   0.00000000000000E+00
      0.00000000000000E+00   0.00000000000000E+00   3.34127879977779E-09   4.89818046589901E-13   3.34176861782438E-09
     -4.78541556479171E-17
      3.80569790370363E-01
     -3.80569790370363E-01  -3.80569790370363E-01   0.00000000000000E+00   0.00000000000000E+00  -4.77662415515497E-09
     -6.35512337047961E-15  -4.77663051027835E-09   4.76371212377259E-17   0.00000000000000E+00   0.00000000000000E+00
      0.00000000000000E+00   0.00000000000000E+00   4.77596576400803E-09   6.64746270309311E-13   4.77663051027834E-09
     -4.76371212377259E-17
      3.92428150781027E-01
     -3.92428150781027E-01  -3.92428150781027E-01   0.00000000000000E+00   0.00000000000000E+00  -6.45396668834028E-09
     -1.00533188206296E-14  -6.45397674165911E-09   4.74230919888653E-17   0.00000000000000E+00   0.00000000000000E+00
      0.00000000000000E+00   0.00000000000000E+00   6.45311042285225E-09   8.66318806844165E-13   6.45397674165910E-09
     -4.74230919888653E-17
      4.03021619414554E-01
     -4.03021619414554E-01  -4.03021619414554E-01   0.00000000000000E+00   0.00000000000000E+00  -8.38879703358983E-09
     -1.51441070191529E-14  -8.38881217769685E-09   4.72064730912595E-17   0.00000000000000E+00   0.00000000000000E+00
      0.00000000000000E+00   0.00000000000000E+00   8.38771335280046E-09   1.09882489640973E-12   8.38881217769687E-09
     -4.72064730912594E-17
      4.22513601700244E-01
     -4.22513601700244E-01  -4.22513601700244E-01   0.00000000000000E+00   0.00000000000000E+00  -1.33791050865459E-08
     -3.21830012102424E-14  -1.33791372695471E-08   4.67282600624938E-17   0.00000000000000E+00   0.00000000000000E+00
      0.00000000000000E+00   0.00000000000000E+00   1.33774242468520E-08   1.71302269508466E-12   1.33791372695471E-08
     -4.67282600624939E-17
      4.37587401334511E-01
     -4.37587401334511E-01  -4.37587401334511E-01   0.00000000000000E+00   0.00000000000000E+00  -1.89498673942967E-08
     -5.76477946861319E-14  -1.89499250420914E-08   4.62690997514937E-17   0.00000000000000E+00   0.00000000000000E+00
      0.00000000000000E+00   0.00000000000000E+00   1.89474856960634E-08   2.43934602791777E-12   1.89499250420914E-08
     -4.62690997514936E-17
      4.51053329007790E-01
     -4.51053329007790E-01  -4.51053329007790E-01   0.00000000000000E+00   0.00000000000000E+00  -2.56419040161259E-08
     -9.70318709010668E-14  -2.56420010479968E-08   4.57768072826289E-17   0.00000000000000E+00   0.00000000000000E+00
      0.00000000000000E+00   0.00000000000000E+00   2.56386187511819E-08   3.38229681481620E-12   2.56420010479967E-08
     -4.57768072826288E-17
      4.62364708253344E-01
     -4.62364708253344E-01  -4.62364708253344E-01   0.00000000000000E+00   0.00000000000000E+00  -3.28738122303834E-08
     -1.50260177699888E-13  -3.28739624905611E-08   4.52929327575386E-17   0.00000000000000E+00   0.00000000000000E+00
      0.00000000000000E+00   0.00000000000000E+00   3.28694660978313E-08   4.49639272987640E-12   3.28739624905612E-08
     -4.52929327575386E-17
      4.72469540379372E-01
     -4.72469540379372E-01  -4.72469540379372E-01   0.00000000000000E+00   0.00000000000000E+00  -4.08840270740187E-08
     -2.22071307563225E-13  -4.08842491453263E-08   4.47991933830161E-17   0.00000000000000E+00   0.00000000000000E+00
      0.00000000000000E+00   0.00000000000000E+00   4.08783973552065E-08   5.85179011951584E-12   4.08842491453261E-08
     -4.47991933830161E-17
      4.90792969301236E-01
     -4.90792969301236E-01  -4.90792969301236E-01   0.00000000000000E+00   0.00000000000000E+00  -6.02178001638254E-08
     -4.50866376987242E-13  -6.02182510302024E-08   4.37371287487003E-17   0.00000000000000E+00   0.00000000000000E+00
      0.00000000000000E+00   0.00000000000000E+00   6.02085812733238E-08   9.66975687845825E-12   6.02182510302023E-08
     -4.37371287487003E-17
      5.06184649595602E-01
     -5.06184649595602E-01  -5.06184649595602E-01   0.00000000000000E+00   0.00000000000000E+00  -8.27865386753189E-08
     -8.17119014260617E-13  -8.27873557943332E-08   4.26604877212524E-17   0.00000000000000E+00   0.00000000000000E+00
      0.00000000000000E+00   0.00000000000000E+00   8.27722247635585E-08   1.51310307746546E-11   8.27873557943331E-08
     -4.26604877212524E-17
      5.19318883446795E-01
     -5.19318883446795E-01  -5.19318883446795E-01   0.00000000000000E+00   0.00000000000000E+00  -1.08166123646967E-07
     -1.35683990051085E-12  -1.08167480486868E-07   4.15967565447246E-17   0.00000000000000E+00   0.00000000000000E+00
      0.00000000000000E+00   0.00000000000000E+00   1.08144891622478E-07   2.25888643895108E-11   1.08167480486868E-07
     -4.15967565447246E-17
      5.30877009235844E-01
     -5.30877009235844E-01  -5.30877009235844E-01   0.00000000000000E+00   0.00000000000000E+00  -1.36488260540514E-07
     -2.11939488815073E-12  -1.36490379935402E-07   4.05440753850137E-17   0.00000000000000E+00   0.00000000000000E+00
      0.00000000000000E+00   0.00000000000000E+00   1.36457805074179E-07   3.25748612230524E-11   1.36490379935402E-07
     -4.05440753850137E-17
      5.41048159930207E-01
     -5.41048159930207E-01  -5.41048159930207E-01   0.00000000000000E+00   0.00000000000000E+00  -1.67174748759915E-07
     -3.13699276347283E-12  -1.67177885752678E-07   3.95237452047715E-17   0.00000000000000E+00   0.00000000000000E+00
      0.00000000000000E+00   0.00000000000000E+00   1.67132496006672E-07   4.53897460067898E-11   1.67177885752678E-07
     -3.95237452047715E-17
      5.59491846522653E-01
     -5.59491846522653E-01  -5.59491846522653E-01   0.00000000000000E+00   0.00000000000000E+00  -2.40546253330537E-07
     -6.38025257842636E-12  -2.40552633583116E-07   3.74380777112289E-17   0.00000000000000E+00   0.00000000000000E+00
      0.00000000000000E+00   0.00000000000000E+00   2.40468130926880E-07   8.45026562353603E-11   2.40552633583116E-07
     -3.74380777112289E-17
      5.67115236980864E-01
     -5.67115236980864E-01  -5.67115236980864E-01   0.00000000000000E+00   0.00000000000000E+00  -2.79218766072540E-07
     -8.55105033630061E-12  -2.79227317122876E-07   3.64826235980614E-17   0.00000000000000E+00   0.00000000000000E+00
      0.00000000000000E+00   0.00000000000000E+00   2.79117366625384E-07   1.09950497491560E-10   2.79227317122876E-07
     -3.64826235980614E-17
      5.74230401408527E-01
     -5.74230401408527E-01  -5.74230401408527E-01   0.00000000000000E+00   0.00000000000000E+00  -3.20693693607435E-07
     -1.12340431047188E-11  -3.20704927650540E-07   3.55387331147068E-17   0.00000000000000E+00   0.00000000000000E+00
      0.00000000000000E+00   0.00000000000000E+00   3.20563964788121E-07   1.40962862418764E-10   3.20704927650539E-07
     -3.55387331147068E-17
      5.87512041673499E-01
     -5.87512041673499E-01  -5.87512041673499E-01   0.00000000000000E+00   0.00000000000000E+00  -4.14608071675917E-07
     -1.86695885311944E-11  -4.14626741264448E-07   3.36347906685798E-17   0.00000000000000E+00   0.00000000000000E+00
      0.00000000000000E+00   0.00000000000000E+00   4.14401288208825E-07   2.25453055622941E-10   4.14626741264448E-07
     -3.36347906685798E-17
      5.97428999738011E-01
     -5.97428999738011E-01  -5.97428999738011E-01   0.00000000000000E+00   0.00000000000000E+00  -5.01521667913500E-07
     -2.72349860561367E-11  -5.01548902899556E-07   3.20858959554523E-17   0.00000000000000E+00   0.00000000000000E+00
      0.00000000000000E+00   0.00000000000000E+00   5.01227589009087E-07   3.21313890469733E-10   5.01548902899556E-07
     -3.20858959554523E-17
      6.06684827264889E-01
     -6.06684827264889E-01  -6.06684827264889E-01   0.00000000000000E+00   0.00000000000000E+00  -5.98263921651558E-07
     -3.86747147960382E-11  -5.98302596366354E-07   3.05378753169213E-17   0.00000000000000E+00   0.00000000000000E+00
      0.00000000000000E+00   0.00000000000000E+00   5.97854584134093E-07   4.48012232260607E-10   5.98302596366353E-07
     -3.05378753169213E-17
      6.23962371981728E-01
     -6.23962371981728E-01  -6.23962371981728E-01   0.00000000000000E+00   0.00000000000000E+00  -8.28350268778297E-07
     -7.39454438430010E-11  -8.28424214222140E-07   2.73844679735938E-17   0.00000000000000E+00   0.00000000000000E+00
      0.00000000000000E+00   0.00000000000000E+00   8.27590255034444E-07   8.33959187695543E-10   8.28424214222140E-07
     -2.73844679735938E-17
      6.32601144340148E-01
     -6.32601144340148E-01  -6.32601144340148E-01   0.00000000000000E+00   0.00000000000000E+00  -9.72406451136277E-07
     -1.01796804929124E-10  -9.72508247941206E-07   2.56890796704679E-17   0.00000000000000E+00   0.00000000000000E+00
      0.00000000000000E+00   0.00000000000000E+00   9.71372113455237E-07   1.13613448596948E-09   9.72508247941207E-07
     -2.56890796704679E-17
      6.40663998541340E-01
     -6.40663998541340E-01  -6.40663998541340E-01   0.00000000000000E+00   0.00000000000000E+00  -1.12731218582991E-06
     -1.36685717207129E-10  -1.12744887154712E-06   2.40487679294290E-17   0.00000000000000E+00   0.00000000000000E+00
      0.00000000000000E+00   0.00000000000000E+00   1.12593596437403E-06   1.51290717308793E-09   1.12744887154712E-06
     -2.40487679294290E-17
      6.48189329129118E-01
     -6.48189329129118E-01  -6.48189329129118E-01   0.00000000000000E+00   0.00000000000000E+00  -1.29156971529431E-06
     -1.79251637135850E-10  -1.29174896693144E-06   2.24809973063852E-17   0.00000000000000E+00   0.00000000000000E+00
      0.00000000000000E+00   0.00000000000000E+00   1.28977808411765E-06   1.97088281379608E-09   1.29174896693145E-06
     -2.24809973063852E-17
      6.55212971011045E-01
     -6.55212971011045E-01  -6.55212971011045E-01   0.00000000000000E+00   0.00000000000000E+00  -1.46341826557201E-06
     -2.29893422316691E-10  -1.46364815899432E-06   2.10001204427627E-17   0.00000000000000E+00   0.00000000000000E+00
      0.00000000000000E+00   0.00000000000000E+00   1.46113403566241E-06   2.51412333192111E-09   1.46364815899433E-06
     -2.10001204427627E-17
      6.61768370100844E-01
     -6.61768370100844E-01  -6.61768370100844E-01   0.00000000000000E+00   0.00000000000000E+00  -1.64091564394336E-06
     -2.88721864102928E-10  -1.64120436580746E-06   1.96166063289447E-17   0.00000000000000E+00   0.00000000000000E+00
      0.00000000000000E+00   0.00000000000000E+00   1.63806071105778E-06   3.14365474968571E-09   1.64120436580746E-06
     -1.96166063289447E-17
      6.67886742584656E-01
     -6.67886742584656E-01  -6.67886742584656E-01   0.00000000000000E+00   0.00000000000000E+00  -1.82203017812669E-06
     -3.55538193992270E-10  -1.82238571632068E-06   1.83368067287139E-17   0.00000000000000E+00   0.00000000000000E+00
      0.00000000000000E+00   0.00000000000000E+00   1.81852846806240E-06   3.85724825827078E-09   1.82238571632067E-06
     -1.83368067287139E-17
      6.73597223569547E-01
     -6.73597223569547E-01  -6.73597223569547E-01   0.00000000000000E+00   0.00000000000000E+00  -2.00473418194186E-06
     -4.29841560858730E-10  -2.00516402350272E-06   1.71631786278780E-17   0.00000000000000E+00   0.00000000000000E+00
      0.00000000000000E+00   0.00000000000000E+00   2.00051451807370E-06   4.64950542902651E-09   2.00516402350272E-06
     -1.71631786278780E-17
      6.84409067567607E-01
     -6.84409067567607E-01  -6.84409067567607E-01   0.00000000000000E+00   0.00000000000000E+00  -2.38624225088523E-06
     -6.07114725822232E-10  -2.38684936561105E-06   1.50314382277383E-17   0.00000000000000E+00   0.00000000000000E+00
      0.00000000000000E+00   0.00000000000000E+00   2.38031347667273E-06   6.53588893831683E-09   2.38684936561105E-06
     -1.50314382277383E-17
      6.94355964045823E-01
     -6.94355964045823E-01  -6.94355964045823E-01   0.00000000000000E+00   0.00000000000000E+00  -2.77534807526316E-06
     -8.18291863547097E-10  -2.77616636712671E-06   1.32180150686513E-17   0.00000000000000E+00   0.00000000000000E+00
      0.00000000000000E+00   0.00000000000000E+00   2.76738789308584E-06   8.77847404086556E-09   2.77616636712670E-06
     -1.32180150686513E-17
      7.03639734092158E-01
     -7.03639734092158E-01  -7.03639734092158E-01   0.00000000000000E+00   0.00000000000000E+00  -3.16573915282733E-06
     -1.06040063267943E-09  -3.16679955346001E-06   1.16871343245625E-17   0.00000000000000E+00   0.00000000000000E+00
      0.00000000000000E+00   0.00000000000000E+00   3.15545394805947E-06   1.13456054005500E-08   3.16679955346001E-06
     -1.16871343245624E-17
      7.12304586135403E-01
     -7.12304586135403E-01  -7.12304586135403E-01   0.00000000000000E+00   0.00000000000000E+00  -3.54680336071190E-06
     -1.32530084063373E-09  -3.54812866155253E-06   1.04161284658525E-17   0.00000000000000E+00   0.00000000000000E+00
      0.00000000000000E+00   0.00000000000000E+00   3.53397754718334E-06   1.41511143691771E-08   3.54812866155252E-06
     -1.04161284658525E-17
      7.20391781375766E-01
     -7.20391781375766E-01  -7.20391781375766E-01   0.00000000000000E+00   0.00000000000000E+00  -3.90990451874546E-06
     -1.60334649972790E-09  -3.91150786524519E-06   9.37241638295494E-18   0.00000000000000E+00   0.00000000000000E+00
      0.00000000000000E+00   0.00000000000000E+00   3.89441468443394E-06   1.70931808112487E-08   3.91150786524519E-06
     -9.37241638295492E-18
      7.27939830266771E-01
     -7.27939830266771E-01  -7.27939830266771E-01   0.00000000000000E+00   0.00000000000000E+00  -4.24897917012942E-06
     -1.88498001876774E-09  -4.25086415014819E-06   8.52039941055228E-18   0.00000000000000E+00   0.00000000000000E+00
      0.00000000000000E+00   0.00000000000000E+00   4.23079304676287E-06   2.00711033853413E-08   4.25086415014821E-06
     -8.52039941055224E-18
      7.34984675898375E-01
     -7.34984675898375E-01  -7.34984675898375E-01   0.00000000000000E+00   0.00000000000000E+00  -4.56056850919714E-06
     -2.16196287992713E-09  -4.56273047207706E-06   7.82602357652890E-18   0.00000000000000E+00   0.00000000000000E+00
      0.00000000000000E+00   0.00000000000000E+00   4.53973226040889E-06   2.29982116681752E-08   4.56273047207707E-06
     -7.82602357652889E-18
      7.41559865154540E-01
     -7.41559865154540E-01  -7.41559865154540E-01   0.00000000000000E+00   0.00000000000000E+00  -4.84344677576206E-06
     -2.42802629289253E-09  -4.84587480205496E-06   7.25917381567663E-18   0.00000000000000E+00   0.00000000000000E+00
      0.00000000000000E+00   0.00000000000000E+00   4.82006613754520E-06   2.58086645097547E-08   4.84587480205496E-06
     -7.25917381567660E-18
      7.47696708460293E-01
     -7.47696708460293E-01  -7.47696708460293E-01   0.00000000000000E+00   0.00000000000000E+00  -5.09806086090144E-06
     -2.67898558086186E-09  -5.10073984648230E-06   6.79451009876190E-18   0.00000000000000E+00   0.00000000000000E+00
      0.00000000000000E+00   0.00000000000000E+00   5.07228123901057E-06   2.84586074717258E-08   5.10073984648230E-06
     -6.79451009876190E-18
      7.53506253456407E-01
     -7.53506253456407E-01  -7.53506253456407E-01   0.00000000000000E+00   0.00000000000000E+00  -5.32913911258704E-06
     -2.91581724679523E-09  -5.33205492983383E-06   6.40623431774599E-18   0.00000000000000E+00   0.00000000000000E+00
      0.00000000000000E+00   0.00000000000000E+00   5.30109630734259E-06   3.09586224912453E-08   5.33205492983383E-06
     -6.40623431774599E-18
      7.64660579848944E-01
     -7.64660579848944E-01  -7.64660579848944E-01   0.00000000000000E+00   0.00000000000000E+00  -5.74231045938801E-06
     -3.35966245297302E-09  -5.74567012184099E-06   5.78206674266700E-18   0.00000000000000E+00   0.00000000000000E+00
      0.00000000000000E+00   0.00000000000000E+00   5.71002793853859E-06   3.56421833023920E-08   5.74567012184098E-06
     -5.78206674266699E-18
      7.74922560130079E-01
     -7.74922560130079E-01  -7.74922560130079E-01   0.00000000000000E+00   0.00000000000000E+00  -6.08533175517763E-06
     -3.74657200172066E-09  -6.08907832717935E-06   5.32381342798081E-18   0.00000000000000E+00   0.00000000000000E+00
      0.00000000000000E+00   0.00000000000000E+00   6.04935496755137E-06   3.97233596279797E-08   6.08907832717935E-06
     -5.32381342798081E-18
      7.84500408392471E-01
     -7.84500408392471E-01  -7.84500408392471E-01   0.00000000000000E+00   0.00000000000000E+00  -6.37430447764070E-06
     -4.08419530403807E-09  -6.37838867294474E-06   4.97471194138495E-18   0.00000000000000E+00   0.00000000000000E+00
      0.00000000000000E+00   0.00000000000000E+00   6.33510508315998E-06   4.32835897847498E-08   6.37838867294473E-06
     -4.97471194138492E-18
      7.93439733437370E-01
     -7.93439733437370E-01  -7.93439733437370E-01   0.00000000000000E+00   0.00000000000000E+00  -6.61907917061898E-06
     -4.37761641702227E-09  -6.62345678703601E-06   4.70275856490278E-18   0.00000000000000E+00   0.00000000000000E+00
      0.00000000000000E+00   0.00000000000000E+00   6.57707982085338E-06   4.63769661826173E-08   6.62345678703600E-06
     -4.70275856490275E-18
      8.01783103479276E-01