DF-ISE text

Info {
  version   = 1.0
  type      = xyplot
  datasets  = [
    "time"
    "top OuterVoltage" "top InnerVoltage" "top QuasiFermiPotential" "top DisplacementCurrent" "top eCurrent"
    "top hCurrent" "top TotalCurrent" "top Charge" "bottom OuterVoltage" "bottom InnerVoltage"
    "bottom QuasiFermiPotential" "bottom DisplacementCurrent" "bottom eCurrent" "bottom hCurrent" "bottom TotalCurrent"
    "bottom Charge" ]
  functions = [
    Time
    OuterVoltage InnerVoltage QuasiFermiPotential DisplacementCurrent eCurrent
    hCurrent TotalCurrent Charge OuterVoltage InnerVoltage
    QuasiFermiPotential DisplacementCurrent eCurrent hCurrent TotalCurrent
    Charge ]
}

Data {
      0.00000000000000E+00
      0.00000000000000E+00   0.00000000000000E+00   0.00000000000000E+00   0.00000000000000E+00  -9.96959252742136E-22
      2.10958671072268E-30  -9.96959250632549E-22   9.61865973500189E-17   0.00000000000000E+00   0.00000000000000E+00
      0.00000000000000E+00   0.00000000000000E+00   9.96959252666926E-22  -2.03437888105428E-30   9.96959250632547E-22
     -9.61865973500187E-17
      0.00000000000000E+00
      0.00000000000000E+00   0.00000000000000E+00   0.00000000000000E+00   0.00000000000000E+00  -3.02138779802575E-18
      3.87953721664495E-28  -3.02138779763779E-18   9.61865771590150E-17   0.00000000000000E+00   0.00000000000000E+00
      0.00000000000000E+00   0.00000000000000E+00   3.02138780005658E-18  -2.41879285037453E-27   3.02138779763779E-18
     -9.61865771590149E-17
      1.00000000000000E-02
     -1.00000000000000E-02  -1.00000000000000E-02   0.00000000000000E+00   0.00000000000000E+00  -1.77874686071765E-16
     -1.28443232162692E-21  -1.77875970504086E-16   9.58533362517439E-17   0.00000000000000E+00   0.00000000000000E+00
      0.00000000000000E+00   0.00000000000000E+00   1.66057347699367E-16   1.18186228047190E-17   1.77875970504086E-16
     -9.58533362517440E-17
      2.89333333333333E-02
     -2.89333333333333E-02  -2.89333333333333E-02   0.00000000000000E+00   0.00000000000000E+00  -7.48868095618935E-16
     -6.23532081094788E-21  -7.48874330939746E-16   9.52189184540521E-17   0.00000000000000E+00   0.00000000000000E+00
      0.00000000000000E+00   0.00000000000000E+00   7.08079910855139E-16   4.07944200846086E-17   7.48874330939747E-16
     -9.52189184540521E-17
      4.63520000000000E-02
     -4.63520000000000E-02  -4.63520000000000E-02   0.00000000000000E+00   0.00000000000000E+00  -1.76220223802657E-15
      1.40715061220733E-19  -1.76206152296535E-15   9.46311588561341E-17   0.00000000000000E+00   0.00000000000000E+00
      0.00000000000000E+00   0.00000000000000E+00   1.68381604497762E-15   7.82454779877308E-17   1.76206152296535E-15
     -9.46311588561343E-17
      6.23771733333333E-02
     -6.23771733333333E-02  -6.23771733333333E-02   0.00000000000000E+00   0.00000000000000E+00  -3.48313852693221E-15
     -1.08326576196742E-20  -3.48314935958982E-15   9.40868845711766E-17   0.00000000000000E+00   0.00000000000000E+00
      0.00000000000000E+00   0.00000000000000E+00   3.35679466605964E-15   1.26354693530182E-16   3.48314935958982E-15
     -9.40868845711765E-17
      7.71203328000000E-02
     -7.71203328000000E-02  -7.71203328000000E-02   0.00000000000000E+00   0.00000000000000E+00  -6.27915730649021E-15
     -5.03148057963596E-20  -6.27920762129601E-15   9.35831047782010E-17   0.00000000000000E+00   0.00000000000000E+00
      0.00000000000000E+00   0.00000000000000E+00   6.09244584478953E-15   1.86761776506484E-16   6.27920762129601E-15
     -9.35831047782010E-17
      9.06840395093333E-02
     -9.06840395093333E-02  -9.06840395093333E-02   0.00000000000000E+00   0.00000000000000E+00  -1.06306363156569E-14
     -8.64816617485993E-20  -1.06307227973186E-14   9.31170044947235E-17   0.00000000000000E+00   0.00000000000000E+00
      0.00000000000000E+00   0.00000000000000E+00   1.03694785331506E-14   2.61244264168057E-16   1.06307227973186E-14
     -9.31170044947233E-17
      1.03343499104711E-01
     -1.03343499104711E-01  -1.03343499104711E-01   0.00000000000000E+00   0.00000000000000E+00  -1.72514476592637E-14
     -1.42122078009425E-19  -1.72515897813417E-14   9.26796745911656E-17   0.00000000000000E+00   0.00000000000000E+00
      0.00000000000000E+00   0.00000000000000E+00   1.68988252729202E-14   3.52764508421476E-16   1.72515897813417E-14
     -9.26796745911656E-17
      1.14990201932459E-01
     -1.14990201932459E-01  -1.14990201932459E-01   0.00000000000000E+00   0.00000000000000E+00  -2.68383952889843E-14
     -2.23450594701938E-19  -2.68386187395790E-14   9.22753392793504E-17   0.00000000000000E+00   0.00000000000000E+00
      0.00000000000000E+00   0.00000000000000E+00   2.63769358566829E-14   4.61682882896113E-16   2.68386187395790E-14
     -9.22753392793504E-17
      1.25860457905023E-01
     -1.25860457905023E-01  -1.25860457905023E-01   0.00000000000000E+00   0.00000000000000E+00  -4.04696765318817E-14
     -3.40076251841798E-19  -4.04700166081335E-14   9.18962148811665E-17   0.00000000000000E+00   0.00000000000000E+00
      0.00000000000000E+00   0.00000000000000E+00   3.98790330235404E-14   5.90983584593134E-16   4.04700166081335E-14
     -9.18962148811665E-17
      1.46441475879745E-01
     -1.46441475879745E-01  -1.46441475879745E-01   0.00000000000000E+00   0.00000000000000E+00  -8.78625783318630E-14
     -7.50970379841262E-19  -8.78633293022428E-14   9.11737180688915E-17   0.00000000000000E+00   0.00000000000000E+00
      0.00000000000000E+00   0.00000000000000E+00   8.69265021281067E-14   9.36827174136362E-16   8.78633293022430E-14
     -9.11737180688915E-17
      1.62631876686526E-01
     -1.62631876686526E-01  -1.62631876686526E-01   0.00000000000000E+00   0.00000000000000E+00  -1.61514894545574E-13
     -1.39960416220287E-18  -1.61516294149736E-13   9.06009666327045E-17   0.00000000000000E+00   0.00000000000000E+00
      0.00000000000000E+00   0.00000000000000E+00   1.60174455954257E-13   1.34183819547907E-15   1.61516294149736E-13
     -9.06009666327043E-17
      1.77527045428765E-01
     -1.77527045428765E-01  -1.77527045428765E-01   0.00000000000000E+00   0.00000000000000E+00  -2.82707282330095E-13
     -2.48292242887757E-18  -2.82709765252524E-13   9.00705587180620E-17   0.00000000000000E+00   0.00000000000000E+00
      0.00000000000000E+00   0.00000000000000E+00   2.80843242018346E-13   1.86652323417672E-15   2.82709765252523E-13
     -9.00705587180617E-17
      1.91230600671624E-01
     -1.91230600671624E-01  -1.91230600671624E-01   0.00000000000000E+00   0.00000000000000E+00  -4.73111975234473E-13
     -4.21005509775993E-18  -4.73116185289571E-13   8.95795928870199E-17   0.00000000000000E+00   0.00000000000000E+00
      0.00000000000000E+00   0.00000000000000E+00   4.70585715943433E-13   2.53046934613691E-15   4.73116185289570E-13
     -8.95795928870199E-17
      2.03655157425151E-01
     -2.03655157425151E-01  -2.03655157425151E-01   0.00000000000000E+00   0.00000000000000E+00  -7.54570941823458E-13
     -6.79888270771099E-18  -7.54577740706166E-13   8.91319362507721E-17   0.00000000000000E+00   0.00000000000000E+00
      0.00000000000000E+00   0.00000000000000E+00   7.51238720916856E-13   3.33901978931109E-15   7.54577740706167E-13
     -8.91319362507721E-17
      2.15085749638394E-01
     -2.15085749638394E-01  -2.15085749638394E-01   0.00000000000000E+00   0.00000000000000E+00  -1.15930288105175E-12
     -1.05704603721041E-17  -1.15931345151212E-12   8.87179509615399E-17   0.00000000000000E+00   0.00000000000000E+00
      0.00000000000000E+00   0.00000000000000E+00   1.15499683822805E-12   4.31661328406456E-15   1.15931345151212E-12
     -8.87179509615398E-17
      2.36422855103117E-01
     -2.36422855103117E-01  -2.36422855103117E-01   0.00000000000000E+00   0.00000000000000E+00  -2.58380860754483E-12
     -2.41065684724713E-17  -2.58383271411330E-12   8.79395937292965E-17   0.00000000000000E+00   0.00000000000000E+00
      0.00000000000000E+00   0.00000000000000E+00   2.57681869906723E-12   7.01401504607078E-15   2.58383271411330E-12
     -8.79395937292966E-17
      2.52354560516776E-01
     -2.52354560516776E-01  -2.52354560516776E-01   0.00000000000000E+00   0.00000000000000E+00  -4.69961274089465E-12
     -4.46295368202915E-17  -4.69965737043147E-12   8.73535843584026E-17   0.00000000000000E+00   0.00000000000000E+00
      0.00000000000000E+00   0.00000000000000E+00   4.68951099278224E-12   1.01463776492442E-14   4.69965737043148E-12
     -8.73535843584026E-17
      2.67011729497342E-01
     -2.67011729497342E-01  -2.67011729497342E-01   0.00000000000000E+00   0.00000000000000E+00  -8.14669926261117E-12
     -7.86625952572333E-17  -8.14677792520643E-12   8.68107193278361E-17   0.00000000000000E+00   0.00000000000000E+00
      0.00000000000000E+00   0.00000000000000E+00   8.13243641471281E-12   1.43415104936084E-14   8.14677792520642E-12
     -8.68107193278360E-17
      2.80300896039722E-01
     -2.80300896039722E-01  -2.80300896039722E-01   0.00000000000000E+00   0.00000000000000E+00  -1.34119396701287E-11
     -1.31513893637498E-16  -1.34120711840224E-11   8.63153553068108E-17   0.00000000000000E+00   0.00000000000000E+00
      0.00000000000000E+00   0.00000000000000E+00   1.33923224628017E-11   1.97487212207588E-14   1.34120711840224E-11
     -8.63153553068108E-17
      2.92349740371480E-01
     -2.92349740371480E-01  -2.92349740371480E-01   0.00000000000000E+00   0.00000000000000E+00  -2.10705483674685E-11
     -2.09587739627446E-16  -2.10707579552081E-11   8.58635554527752E-17   0.00000000000000E+00   0.00000000000000E+00
      0.00000000000000E+00   0.00000000000000E+00   2.10442106151835E-11   2.65473400246061E-14   2.10707579552081E-11
     -8.58635554527752E-17
      3.03595328414455E-01
     -3.03595328414455E-01  -3.03595328414455E-01   0.00000000000000E+00   0.00000000000000E+00  -3.21109480284230E-11
     -3.23794627107435E-16  -3.21112718230501E-11   8.54395165435696E-17   0.00000000000000E+00   0.00000000000000E+00
      0.00000000000000E+00   0.00000000000000E+00   3.20760900638007E-11   3.51817592495056E-14   3.21112718230502E-11
     -8.54395165435696E-17
      3.24587092761340E-01
     -3.24587092761340E-01  -3.24587092761340E-01   0.00000000000000E+00   0.00000000000000E+00  -7.04316357656918E-11
     -7.29265096993974E-16  -7.04323650307888E-11   8.46415751374612E-17   0.00000000000000E+00   0.00000000000000E+00
      0.00000000000000E+00   0.00000000000000E+00   7.03719115652396E-11   6.04534655493578E-14   7.04323650307890E-11
     -8.46415751374613E-17
      3.33403633787032E-01
     -3.33403633787032E-01  -3.33403633787032E-01   0.00000000000000E+00   0.00000000000000E+00  -9.79059962223079E-11
     -1.03065269863061E-15  -9.79070268750066E-11   8.43037912998030E-17   0.00000000000000E+00   0.00000000000000E+00
      0.00000000000000E+00   0.00000000000000E+00   9.78306386858445E-11   7.63881891620993E-14   9.79070268750066E-11
     -8.43037912998031E-17
      3.41749959291353E-01
     -3.41749959291353E-01  -3.41749959291353E-01   0.00000000000000E+00   0.00000000000000E+00  -1.33678383438015E-10
     -1.41943771467804E-15  -1.33679802875730E-10   8.39824591581352E-17   0.00000000000000E+00   0.00000000000000E+00
      0.00000000000000E+00   0.00000000000000E+00   1.33584117787378E-10   9.56850883517133E-14   1.33679802875730E-10
     -8.39824591581352E-17
      3.57552335579535E-01
     -3.57552335579535E-01  -3.57552335579535E-01   0.00000000000000E+00   0.00000000000000E+00  -2.40762462996191E-10
     -2.61011236655769E-15  -2.40765073108557E-10   8.33694773298990E-17   0.00000000000000E+00   0.00000000000000E+00
      0.00000000000000E+00   0.00000000000000E+00   2.40616981158680E-10   1.48091949876815E-13   2.40765073108557E-10
     -8.33694773298991E-17
      3.71458426713136E-01
     -3.71458426713136E-01  -3.71458426713136E-01   0.00000000000000E+00   0.00000000000000E+00  -4.03320842544141E-10
     -4.46955730324151E-15  -4.03325312101444E-10   8.28242782239511E-17   0.00000000000000E+00   0.00000000000000E+00
      0.00000000000000E+00   0.00000000000000E+00   4.03105355773196E-10   2.19956328248789E-13   4.03325312101444E-10
     -8.28242782239511E-17
      3.83881201459152E-01
     -3.83881201459152E-01  -3.83881201459152E-01   0.00000000000000E+00   0.00000000000000E+00  -6.38142905547559E-10
     -7.22688749417385E-15  -6.38150132435053E-10   8.23315725417087E-17   0.00000000000000E+00   0.00000000000000E+00
      0.00000000000000E+00   0.00000000000000E+00   6.37834211883197E-10   3.15920551855538E-13   6.38150132435053E-10
     -8.23315725417086E-17
      3.95310154225487E-01
     -3.95310154225487E-01  -3.95310154225487E-01   0.00000000000000E+00   0.00000000000000E+00  -9.71025723077579E-10
     -1.12445608421038E-14  -9.71036967638421E-10   8.18722862103740E-17   0.00000000000000E+00   0.00000000000000E+00
      0.00000000000000E+00   0.00000000000000E+00   9.70593167946607E-10   4.43799691814149E-13   9.71036967638421E-10
     -8.18722862103740E-17
      4.05977176807399E-01
     -4.05977176807399E-01  -4.05977176807399E-01   0.00000000000000E+00   0.00000000000000E+00  -1.43291744506143E-09
     -1.69876207555597E-14  -1.43293443268218E-09   8.14369211867490E-17   0.00000000000000E+00   0.00000000000000E+00
      0.00000000000000E+00   0.00000000000000E+00   1.43232170315649E-09   6.12729525695906E-13   1.43293443268218E-09
     -8.14369211867490E-17
      4.25888952293636E-01
     -4.25888952293636E-01  -4.25888952293636E-01   0.00000000000000E+00   0.00000000000000E+00  -2.93361645066494E-09
     -3.66955978794541E-14  -2.93365314626281E-09   8.05995048990118E-17   0.00000000000000E+00   0.00000000000000E+00
      0.00000000000000E+00   0.00000000000000E+00   2.93252152696892E-09   1.13161929390582E-12   2.93365314626282E-09
     -8.05995048990118E-17
      4.42880334041892E-01
     -4.42880334041892E-01  -4.42880334041892E-01   0.00000000000000E+00   0.00000000000000E+00  -5.32891416083133E-09
     -7.07993000366313E-14  -5.32898496013136E-09   7.98458272698057E-17   0.00000000000000E+00   0.00000000000000E+00
      0.00000000000000E+00   0.00000000000000E+00   5.32705880290409E-09   1.92615722728311E-12   5.32898496013137E-09
     -7.98458272698057E-17
      4.57153094710426E-01
     -4.57153094710426E-01  -4.57153094710426E-01   0.00000000000000E+00   0.00000000000000E+00  -8.67275852807990E-09
     -1.22960812986324E-13  -8.67288148889289E-09   7.91690814701433E-17   0.00000000000000E+00   0.00000000000000E+00
      0.00000000000000E+00   0.00000000000000E+00   8.66986010514566E-09   3.02138374725932E-12   8.67288148889292E-09
     -7.91690814701433E-17
      4.69142213671995E-01
     -4.69142213671995E-01  -4.69142213671995E-01   0.00000000000000E+00   0.00000000000000E+00  -1.28929793343271E-08
     -1.95494903184303E-13  -1.28931748292303E-08   7.85562085462040E-17   0.00000000000000E+00   0.00000000000000E+00
      0.00000000000000E+00   0.00000000000000E+00   1.28887588198575E-08   4.41600937278741E-12   1.28931748292303E-08
     -7.85562085462041E-17
      4.79852493277664E-01
     -4.79852493277664E-01  -4.79852493277664E-01   0.00000000000000E+00   0.00000000000000E+00  -1.81695489192291E-08
     -2.95810337919909E-13  -1.81698447295670E-08   7.79627388994168E-17   0.00000000000000E+00   0.00000000000000E+00
      0.00000000000000E+00   0.00000000000000E+00   1.81636408042066E-08   6.20392536041708E-12   1.81698447295670E-08
     -7.79627388994168E-17
      4.89705950514878E-01
     -4.89705950514878E-01  -4.89705950514878E-01   0.00000000000000E+00   0.00000000000000E+00  -2.46645570837804E-08
     -4.33000744625833E-13  -2.46649900845250E-08   7.73680289396322E-17   0.00000000000000E+00   0.00000000000000E+00
      0.00000000000000E+00   0.00000000000000E+00   2.46564991311679E-08   8.49095335698563E-12   2.46649900845249E-08
     -7.73680289396320E-17
      5.07836311831354E-01
     -5.07836311831354E-01  -5.07836311831354E-01   0.00000000000000E+00   0.00000000000000E+00  -4.21746982146642E-08
     -8.72811449338192E-13  -4.21755710261136E-08   7.61147620204274E-17   0.00000000000000E+00   0.00000000000000E+00
      0.00000000000000E+00   0.00000000000000E+00   4.21603728834023E-08   1.51981427114062E-11   4.21755710261137E-08
     -7.61147620204274E-17
      5.23307553488080E-01
     -5.23307553488080E-01  -5.23307553488080E-01   0.00000000000000E+00   0.00000000000000E+00  -6.49488678749352E-08
     -1.58722928043918E-12  -6.49504551042157E-08   7.48323688804183E-17   0.00000000000000E+00   0.00000000000000E+00
      0.00000000000000E+00   0.00000000000000E+00   6.49252804373585E-08   2.51746668571570E-11   6.49504551042156E-08
     -7.48323688804183E-17
      5.34653130703012E-01
     -5.34653130703012E-01  -5.34653130703012E-01   0.00000000000000E+00   0.00000000000000E+00  -8.78880999139141E-08
     -2.46063607176168E-12  -8.78905605499859E-08   7.37326621231198E-17   0.00000000000000E+00   0.00000000000000E+00
      0.00000000000000E+00   0.00000000000000E+00   8.78538809862417E-08   3.66795637441957E-11   8.78905605499859E-08
     -7.37326621231198E-17
      5.44939787377884E-01
     -5.44939787377884E-01  -5.44939787377884E-01   0.00000000000000E+00   0.00000000000000E+00  -1.14529114880419E-07
     -3.66126117127760E-12  -1.14532776141590E-07   7.25958022263908E-17   0.00000000000000E+00   0.00000000000000E+00
      0.00000000000000E+00   0.00000000000000E+00   1.14480905207027E-07   5.18709345631383E-11   1.14532776141590E-07
     -7.25958022263909E-17
      5.54540666941097E-01
     -5.54540666941097E-01  -5.54540666941097E-01   0.00000000000000E+00   0.00000000000000E+00  -1.45552645463491E-07
     -5.30455612190054E-12  -1.45557950019613E-07   7.13968897592948E-17   0.00000000000000E+00   0.00000000000000E+00
      0.00000000000000E+00   0.00000000000000E+00   1.45485929588612E-07   7.20204310001501E-11   1.45557950019612E-07
     -7.13968897592948E-17
      5.63501487866763E-01
     -5.63501487866763E-01  -5.63501487866763E-01   0.00000000000000E+00   0.00000000000000E+00  -1.80983021008438E-07
     -7.49663617891392E-12  -1.80990517644617E-07   7.01430819722925E-17   0.00000000000000E+00   0.00000000000000E+00
      0.00000000000000E+00   0.00000000000000E+00   1.80892279744177E-07   9.82379004394629E-11   1.80990517644616E-07
     -7.01430819722927E-17
      5.71864920730718E-01
     -5.71864920730718E-01  -5.71864920730718E-01   0.00000000000000E+00   0.00000000000000E+00  -2.20765610716400E-07
     -1.03513331394967E-11  -2.20775962049540E-07   6.88435339289846E-17   0.00000000000000E+00   0.00000000000000E+00
      0.00000000000000E+00   0.00000000000000E+00   2.20644251932276E-07   1.31710117264312E-10   2.20775962049540E-07
     -6.88435339289846E-17
      5.79670791403743E-01
     -5.79670791403743E-01  -5.79670791403743E-01   0.00000000000000E+00   0.00000000000000E+00  -2.64771518155423E-07
     -1.39863684697851E-11  -2.64785504523893E-07   6.75087191828637E-17   0.00000000000000E+00   0.00000000000000E+00
      0.00000000000000E+00   0.00000000000000E+00   2.64611844041934E-07   1.73660481958374E-10   2.64785504523892E-07
     -6.75087191828636E-17
      5.86956270698566E-01
     -5.86956270698566E-01  -5.86956270698566E-01   0.00000000000000E+00   0.00000000000000E+00  -3.12803858405641E-07
     -1.85188953857278E-11  -3.12822377301027E-07   6.61497812971980E-17   0.00000000000000E+00   0.00000000000000E+00
      0.00000000000000E+00   0.00000000000000E+00   3.12597074956193E-07   2.25302344832333E-10   3.12822377301026E-07
     -6.61497812971980E-17
      6.00555832048902E-01
     -6.00555832048902E-01  -6.00555832048902E-01   0.00000000000000E+00   0.00000000000000E+00  -4.24093447225782E-07
     -3.12534735976515E-11  -4.24124700699380E-07   6.33024428605513E-17   0.00000000000000E+00   0.00000000000000E+00
      0.00000000000000E+00   0.00000000000000E+00   4.23756522948491E-07   3.68177750888579E-10   4.24124700699380E-07
     -6.33024428605514E-17
      6.11979463583185E-01
     -6.11979463583185E-01  -6.11979463583185E-01   0.00000000000000E+00   0.00000000000000E+00  -5.44326513783683E-07
     -4.84660185989199E-11  -5.44374979802282E-07   6.05830082121741E-17   0.00000000000000E+00   0.00000000000000E+00
      0.00000000000000E+00   0.00000000000000E+00   5.43816411211284E-07   5.58568590997192E-10   5.44374979802281E-07
     -6.05830082121740E-17
      6.22641519681849E-01
     -6.22641519681849E-01  -6.22641519681849E-01   0.00000000000000E+00   0.00000000000000E+00  -6.84088993092347E-07
     -7.29199616515146E-11  -6.84161913053999E-07   5.77687812445428E-17   0.00000000000000E+00   0.00000000000000E+00
      0.00000000000000E+00   0.00000000000000E+00   6.83335561560777E-07   8.26351493221278E-10   6.84161913053999E-07
     -5.77687812445428E-17
      6.32592772040602E-01
     -6.32592772040602E-01  -6.32592772040602E-01   0.00000000000000E+00   0.00000000000000E+00  -8.43793475833914E-07
     -1.06643294693051E-10  -8.43900119128608E-07   5.49045200961867E-17   0.00000000000000E+00   0.00000000000000E+00
      0.00000000000000E+00   0.00000000000000E+00   8.42707284356796E-07   1.19283477181283E-09   8.43900119128609E-07
     -5.49045200961866E-17
      6.41880607575438E-01
     -6.41880607575438E-01  -6.41880607575438E-01   0.00000000000000E+00   0.00000000000000E+00  -1.02343873682846E-06
     -1.51863209654359E-10  -1.02359060003812E-06   5.20332127149020E-17   0.00000000000000E+00   0.00000000000000E+00
      0.00000000000000E+00   0.00000000000000E+00   1.02190921273425E-06   1.68138730387005E-09   1.02359060003812E-06
     -5.20332127149020E-17
      6.50549254074618E-01
     -6.50549254074618E-01  -6.50549254074618E-01   0.00000000000000E+00   0.00000000000000E+00  -1.22259537797519E-06
     -2.10915741759536E-10  -1.22280629371695E-06   4.91939932029497E-17   0.00000000000000E+00   0.00000000000000E+00
      0.00000000000000E+00   0.00000000000000E+00   1.22048980463814E-06   2.31648907880852E-09   1.22280629371695E-06
     -4.91939932029497E-17
      6.58639990807186E-01
     -6.58639990807186E-01  -6.58639990807186E-01   0.00000000000000E+00   0.00000000000000E+00  -1.44041095272214E-06
     -2.86131334071035E-10  -1.44069708405622E-06   4.64208898114194E-17   0.00000000000000E+00   0.00000000000000E+00
      0.00000000000000E+00   0.00000000000000E+00   1.43757455357799E-06   3.12253047821759E-09   1.44069708405621E-06
     -4.64208898114194E-17
      6.66191345090916E-01
     -6.66191345090916E-01  -6.66191345090916E-01   0.00000000000000E+00   0.00000000000000E+00  -1.67563453090064E-06
     -3.79705259890875E-10  -1.67601423616053E-06   4.37422109953583E-17   0.00000000000000E+00   0.00000000000000E+00
      0.00000000000000E+00   0.00000000000000E+00   1.67189178207528E-06   4.12245408526080E-09   1.67601423616054E-06
     -4.37422109953583E-17
      6.73239275755731E-01
     -6.73239275755731E-01  -6.73239275755731E-01   0.00000000000000E+00   0.00000000000000E+00  -1.92665917970760E-06
     -4.93564574106422E-10  -1.92715274428171E-06   4.11803766245854E-17   0.00000000000000E+00   0.00000000000000E+00
      0.00000000000000E+00   0.00000000000000E+00   1.92181638283383E-06   5.33636144788089E-09   1.92715274428171E-06
     -4.11803766245855E-17
      6.79817344376225E-01
     -6.79817344376225E-01  -6.79817344376225E-01   0.00000000000000E+00   0.00000000000000E+00  -2.19157952929695E-06
     -6.29244422953769E-10  -2.19220877371991E-06   3.87520545843534E-17   0.00000000000000E+00   0.00000000000000E+00
      0.00000000000000E+00   0.00000000000000E+00   2.18542855443070E-06   6.78021928920683E-09   2.19220877371990E-06
     -3.87520545843534E-17
      6.92096405801147E-01
     -6.92096405801147E-01  -6.92096405801147E-01   0.00000000000000E+00   0.00000000000000E+00  -2.77593978893045E-06
     -9.84078994173158E-10  -2.77692386792462E-06   3.41841683762057E-17   0.00000000000000E+00   0.00000000000000E+00
      0.00000000000000E+00   0.00000000000000E+00   2.76637608927876E-06   1.05477786458689E-08   2.77692386792463E-06
     -3.41841683762057E-17
      7.03556863131075E-01
     -7.03556863131075E-01  -7.03556863131075E-01   0.00000000000000E+00   0.00000000000000E+00  -3.44188256475436E-06
     -1.47993902442770E-09  -3.44336250377878E-06   2.99754667964542E-17   0.00000000000000E+00   0.00000000000000E+00
      0.00000000000000E+00   0.00000000000000E+00   3.42756148122830E-06   1.58010225504891E-08   3.44336250377879E-06
     -2.99754667964541E-17
      7.14253289972340E-01
     -7.14253289972340E-01  -7.14253289972340E-01   0.00000000000000E+00   0.00000000000000E+00  -4.18230967727277E-06
     -2.14301575199355E-09  -4.18445269302477E-06   2.61965875092874E-17   0.00000000000000E+00   0.00000000000000E+00
      0.00000000000000E+00   0.00000000000000E+00   4.16163850361039E-06   2.28141894143904E-08   4.18445269302477E-06
     -2.61965875092874E-17
      7.24236621690854E-01
     -7.24236621690854E-01  -7.24236621690854E-01   0.00000000000000E+00   0.00000000000000E+00  -4.98577268841904E-06
     -2.99232787128030E-09  -4.98876501629032E-06   2.28804208994635E-17   0.00000000000000E+00   0.00000000000000E+00
      0.00000000000000E+00   0.00000000000000E+00   4.95697910149870E-06   3.17859147916223E-08   4.98876501629032E-06
     -2.28804208994635E-17
      7.33554397961468E-01
     -7.33554397961468E-01  -7.33554397961468E-01   0.00000000000000E+00   0.00000000000000E+00  -5.83726242065518E-06
     -4.03589399943281E-09  -5.84129831465461E-06   2.00257863994654E-17   0.00000000000000E+00   0.00000000000000E+00
      0.00000000000000E+00   0.00000000000000E+00   5.79849918075967E-06   4.27991338949410E-08   5.84129831465461E-06
     -2.00257863994654E-17
      7.42250989147374E-01
     -7.42250989147374E-01  -7.42250989147374E-01   0.00000000000000E+00   0.00000000000000E+00  -6.71952092371648E-06
     -5.26853262978743E-09  -6.72478945634627E-06   1.76055125469312E-17   0.00000000000000E+00   0.00000000000000E+00
      0.00000000000000E+00   0.00000000000000E+00   6.66899134896877E-06   5.57981073774999E-08   6.72478945634627E-06
     -1.76055125469313E-17
      7.50367807587553E-01
     -7.50367807587553E-01  -7.50367807587553E-01   0.00000000000000E+00   0.00000000000000E+00  -7.61462618389116E-06
     -6.67195825224361E-09  -7.62129814214341E-06   1.55761419766524E-17   0.00000000000000E+00   0.00000000000000E+00
      0.00000000000000E+00   0.00000000000000E+00   7.55070857587902E-06   7.05895662643971E-08   7.62129814214341E-06
     -1.55761419766524E-17
      7.57943504798386E-01
     -7.57943504798386E-01  -7.57943504798386E-01   0.00000000000000E+00   0.00000000000000E+00  -8.50553418876160E-06
     -8.21711623584718E-09  -8.51375130499745E-06   1.38868049083682E-17   0.00000000000000E+00   0.00000000000000E+00
      0.00000000000000E+00   0.00000000000000E+00   8.42688397985883E-06   8.68673251386030E-08   8.51375130499743E-06
     -1.38868049083682E-17
      7.65014155528498E-01
     -7.65014155528498E-01  -7.65014155528498E-01   0.00000000000000E+00   0.00000000000000E+00  -9.37730617920953E-06
     -9.86802472355745E-09  -9.38717420393309E-06   1.24859069174104E-17   0.00000000000000E+00   0.00000000000000E+00
      0.00000000000000E+00   0.00000000000000E+00   9.28292149122478E-06   1.04252712708332E-07   9.38717420393311E-06
     -1.24859069174103E-17
      7.78212703558039E-01
     -7.78212703558039E-01  -7.78212703558039E-01   0.00000000000000E+00   0.00000000000000E+00  -1.10758631701637E-05
     -1.34637799361239E-08  -1.10893269500998E-05   1.02981743757910E-17   0.00000000000000E+00   0.00000000000000E+00
      0.00000000000000E+00   0.00000000000000E+00   1.09472244066651E-05   1.42102543434781E-07   1.10893269500999E-05
     -1.02981743757910E-17
      7.90531348385611E-01
     -7.90531348385611E-01  -7.90531348385611E-01   0.00000000000000E+00   0.00000000000000E+00  -1.26934071328692E-05
     -1.73308649735004E-08  -1.27107379978427E-05   8.70185174780267E-18   0.00000000000000E+00   0.00000000000000E+00
      0.00000000000000E+00   0.00000000000000E+00   1.25279471025749E-05   1.82790895267788E-07   1.27107379978427E-05
     -8.70185174780266E-18
      8.02028750224678E-01
     -8.02028750224678E-01  -8.02028750224678E-01   0.00000000000000E+00   0.00000000000000E+00  -1.41802081517230E-05
     -2.12437343293763E-08  -1.42014518860524E-05   7.53414693588167E-18   0.00000000000000E+00   0.00000000000000E+00
      0.00000000000000E+00   0.00000000000000E+00   1.39775040162112E-05   2.23947869841209E-07   1.42014518860524E-05
     -7.53414693588165E-18
      8.12759658607807E-01
     -8.12759658607807E-01  -8.12759658607807E-01   0.00000000000000E+00   0.00000000000000E+00  -1.55127758330586E-05
     -2.50250840311131E-08  -1.55378009170898E-05   6.67088766963612E-18   0.00000000000000E+00   0.00000000000000E+00
      0.00000000000000E+00   0.00000000000000E+00   1.52740889937853E-05   2.63711923304472E-07   1.55378009170897E-05
     -6.67088766963616E-18
      8.22775173098727E-01
     -8.22775173098727E-01  -8.22775173098727E-01   0.00000000000000E+00   0.00000000000000E+00  -1.66881986522459E-05
     -2.85632864062241E-08  -1.67167619386521E-05   6.02262969051283E-18   0.00000000000000E+00   0.00000000000000E+00
      0.00000000000000E+00   0.00000000000000E+00   1.64158497435473E-05   3.00912195104852E-07   1.67167619386521E-05
     -6.02262969051282E-18
      8.32122986623587E-01
     -8.32122986623587E-01  -8.32122986623587E-01   0.00000000000000E+00   0.00000000000000E+00  -1.77163851535136E-05
     -3.18054204422587E-08  -1.77481905739558E-05   5.52680787639904E-18   0.00000000000000E+00   0.00000000000000E+00
      0.00000000000000E+00   0.00000000000000E+00   1.74131958975076E-05   3.34994676448222E-07   1.77481905739558E-05
     -5.52680787639901E-18
      8.40847612580122E-01