DF-ISE text

Info {
  version   = 1.0
  type      = xyplot
  datasets  = [
    "time"
    "top OuterVoltage" "top InnerVoltage" "top QuasiFermiPotential" "top DisplacementCurrent" "top eCurrent"
    "top hCurrent" "top TotalCurrent" "top Charge" "bottom OuterVoltage" "bottom InnerVoltage"
    "bottom QuasiFermiPotential" "bottom DisplacementCurrent" "bottom eCurrent" "bottom hCurrent" "bottom TotalCurrent"
    "bottom Charge" ]
  functions = [
    Time
    OuterVoltage InnerVoltage QuasiFermiPotential DisplacementCurrent eCurrent
    hCurrent TotalCurrent Charge OuterVoltage InnerVoltage
    QuasiFermiPotential DisplacementCurrent eCurrent hCurrent TotalCurrent
    Charge ]
}

Data {
      0.00000000000000E+00
      0.00000000000000E+00   0.00000000000000E+00   0.00000000000000E+00   0.00000000000000E+00   2.47948825772129E-21
     -1.44782067996294E-29   2.47948824324308E-21   3.85216066100237E-17   0.00000000000000E+00   0.00000000000000E+00
      0.00000000000000E+00   0.00000000000000E+00  -2.47948825786321E-21   1.46201313048971E-29  -2.47948824324308E-21
     -3.85216066100237E-17
      0.00000000000000E+00
      0.00000000000000E+00   0.00000000000000E+00   0.00000000000000E+00   0.00000000000000E+00   1.49288812556338E-21
      7.76108143881436E-33   1.49288812557114E-21   3.85225497239067E-17   0.00000000000000E+00   0.00000000000000E+00
      0.00000000000000E+00   0.00000000000000E+00  -1.49288812569202E-21   1.20882109439274E-31  -1.49288812557114E-21
     -3.85225497239067E-17
      1.00000000000000E-02
      1.00000000000000E-02   1.00000000000000E-02   0.00000000000000E+00   0.00000000000000E+00   5.67153853044593E-15
      5.31601039262894E-19   5.67207013148519E-15   3.86096013959855E-17   0.00000000000000E+00   0.00000000000000E+00
      0.00000000000000E+00   0.00000000000000E+00  -5.64143096932882E-15  -3.06391621563630E-17  -5.67207013148519E-15
     -3.86096013959855E-17
      2.89333333333333E-02
      2.89333333333333E-02   2.89333333333333E-02   0.00000000000000E+00   0.00000000000000E+00   1.25236839283143E-14
      1.06116637366858E-18   1.25247450946880E-14   3.87774693596074E-17   0.00000000000000E+00   0.00000000000000E+00
      0.00000000000000E+00   0.00000000000000E+00  -1.24486799224627E-14  -7.60651722252341E-17  -1.25247450946880E-14
     -3.87774693596074E-17
      6.42755555555556E-02
      6.42755555555556E-02   6.42755555555556E-02   0.00000000000000E+00   0.00000000000000E+00   1.85768256574617E-14
      1.34478583553801E-18   1.85781704432972E-14   3.91015003883155E-17   0.00000000000000E+00   0.00000000000000E+00
      0.00000000000000E+00   0.00000000000000E+00  -1.84439462372954E-14  -1.34224206001860E-16  -1.85781704432972E-14
     -3.91015003883155E-17
      1.14275555555556E-01
      1.14275555555556E-01   1.14275555555556E-01   0.00000000000000E+00   0.00000000000000E+00   2.23483654920459E-14
      1.14844292756499E-18   2.23495139349735E-14   3.95835790236288E-17   0.00000000000000E+00   0.00000000000000E+00
      0.00000000000000E+00   0.00000000000000E+00  -2.21604418628921E-14  -1.89072072081413E-16  -2.23495139349735E-14
     -3.95835790236287E-17
      1.64275555555556E-01
      1.64275555555556E-01   1.64275555555556E-01   0.00000000000000E+00   0.00000000000000E+00   2.49941529099886E-14
      1.86937751868070E-18   2.49960222875073E-14   4.00931221463559E-17   0.00000000000000E+00   0.00000000000000E+00
      0.00000000000000E+00   0.00000000000000E+00  -2.47643100645911E-14  -2.31712222916274E-16  -2.49960222875073E-14
     -4.00931221463559E-17
      2.14275555555556E-01
      2.14275555555556E-01   2.14275555555556E-01   0.00000000000000E+00   0.00000000000000E+00   2.74604116390483E-14
      1.39121653185871E-18   2.74618028555802E-14   4.06297432214427E-17   0.00000000000000E+00   0.00000000000000E+00
      0.00000000000000E+00   0.00000000000000E+00  -2.71955400409310E-14  -2.66262814649180E-16  -2.74618028555802E-14
     -4.06297432214427E-17
      2.64275555555556E-01
      2.64275555555556E-01   2.64275555555556E-01   0.00000000000000E+00   0.00000000000000E+00   2.98667464471694E-14
      1.65851132357790E-18   2.98684049584930E-14   4.11929913718577E-17   0.00000000000000E+00   0.00000000000000E+00
      0.00000000000000E+00   0.00000000000000E+00  -2.95716966149500E-14  -2.96708343542971E-16  -2.98684049584930E-14
     -4.11929913718576E-17
      3.14275555555556E-01
      3.14275555555556E-01   3.14275555555556E-01   0.00000000000000E+00   0.00000000000000E+00   3.22233409756987E-14
      1.51858504849004E-18   3.22248595607472E-14   4.17823783369905E-17   0.00000000000000E+00   0.00000000000000E+00
      0.00000000000000E+00   0.00000000000000E+00  -3.19019440345370E-14  -3.22915526210131E-16  -3.22248595607472E-14
     -4.17823783369906E-17
      3.64275555555556E-01
      3.64275555555556E-01   3.64275555555556E-01   0.00000000000000E+00   0.00000000000000E+00   3.45292737783722E-14
      1.42200349502771E-18   3.45306957818672E-14   4.23973938469871E-17   0.00000000000000E+00   0.00000000000000E+00
      0.00000000000000E+00   0.00000000000000E+00  -3.41846217535266E-14  -3.46074028340557E-16  -3.45306957818672E-14
     -4.23973938469871E-17
      4.14275555555556E-01
      4.14275555555556E-01   4.14275555555556E-01   0.00000000000000E+00   0.00000000000000E+00   3.67833871265921E-14
      1.43393800057342E-18   3.67848210645927E-14   4.30375145164200E-17   0.00000000000000E+00   0.00000000000000E+00
      0.00000000000000E+00   0.00000000000000E+00  -3.64180771547229E-14  -3.66743909869775E-16  -3.67848210645927E-14
     -4.30375145164200E-17
      4.64275555555555E-01
      4.64275555555555E-01   4.64275555555555E-01   0.00000000000000E+00   0.00000000000000E+00   3.89850750560059E-14
      1.61308575696752E-18   3.89866881417629E-14   4.37022090689686E-17   0.00000000000000E+00   0.00000000000000E+00
      0.00000000000000E+00   0.00000000000000E+00  -3.86013965616089E-14  -3.85291580154002E-16  -3.89866881417629E-14
     -4.37022090689687E-17
      5.14275555555555E-01
      5.14275555555555E-01   5.14275555555555E-01   0.00000000000000E+00   0.00000000000000E+00   4.11344365669102E-14
      1.38046824880288E-18   4.11358170351590E-14   4.43909414594451E-17   0.00000000000000E+00   0.00000000000000E+00
      0.00000000000000E+00   0.00000000000000E+00  -4.07343446019373E-14  -4.01472433221586E-16  -4.11358170351589E-14
     -4.43909414594451E-17
      5.64275555555556E-01
      5.64275555555556E-01   5.64275555555556E-01   0.00000000000000E+00   0.00000000000000E+00   4.32321690763931E-14
      1.49091608601450E-18   4.32336599924791E-14   4.51031727750469E-17   0.00000000000000E+00   0.00000000000000E+00
      0.00000000000000E+00   0.00000000000000E+00  -4.28171992256689E-14  -4.16460766810232E-16  -4.32336599924791E-14
     -4.51031727750468E-17
      6.14275555555556E-01
      6.14275555555556E-01   6.14275555555556E-01   0.00000000000000E+00   0.00000000000000E+00   4.52790977559435E-14
      1.70545708270209E-18   4.52808032130262E-14   4.58383624200348E-17   0.00000000000000E+00   0.00000000000000E+00
      0.00000000000000E+00   0.00000000000000E+00  -4.48504126717442E-14  -4.30390541282092E-16  -4.52808032130262E-14
     -4.58383624200347E-17
      6.64275555555556E-01
      6.64275555555556E-01   6.64275555555556E-01   0.00000000000000E+00   0.00000000000000E+00   4.72763156668697E-14
      1.41512092257583E-18   4.72777307877923E-14   4.65959688740147E-17   0.00000000000000E+00   0.00000000000000E+00
      0.00000000000000E+00   0.00000000000000E+00  -4.68348769152132E-14  -4.42853872579082E-16  -4.72777307877922E-14
     -4.65959688740146E-17
      7.14275555555556E-01
      7.14275555555556E-01   7.14275555555556E-01   0.00000000000000E+00   0.00000000000000E+00   4.92247082127928E-14
      1.48718620182236E-18   4.92261953989946E-14   4.73754501944603E-17   0.00000000000000E+00   0.00000000000000E+00
      0.00000000000000E+00   0.00000000000000E+00  -4.87714547966625E-14  -4.54740602332077E-16  -4.92261953989946E-14
     -4.73754501944603E-17
      7.64275555555556E-01
      7.64275555555556E-01   7.64275555555556E-01   0.00000000000000E+00   0.00000000000000E+00   5.11253922953147E-14
      1.41661798597000E-18   5.11268089133007E-14   4.81762643637706E-17   0.00000000000000E+00   0.00000000000000E+00
      0.00000000000000E+00   0.00000000000000E+00  -5.06613314698816E-14  -4.65477443419078E-16  -5.11268089133007E-14
     -4.81762643637704E-17
      8.14275555555556E-01
      8.14275555555556E-01   8.14275555555556E-01   0.00000000000000E+00   0.00000000000000E+00   5.29794360001972E-14
      1.39956983397668E-18   5.29808355700312E-14   4.89978695422420E-17   0.00000000000000E+00   0.00000000000000E+00
      0.00000000000000E+00   0.00000000000000E+00  -5.25056301807510E-14  -4.75205389280185E-16  -5.29808355700312E-14
     -4.89978695422419E-17
      8.64275555555556E-01
      8.64275555555556E-01   8.64275555555556E-01   0.00000000000000E+00   0.00000000000000E+00   5.47881452106544E-14
      1.39987069595244E-18   5.47895450813504E-14   4.98397242634941E-17   0.00000000000000E+00   0.00000000000000E+00
      0.00000000000000E+00   0.00000000000000E+00  -5.43056369206160E-14  -4.83908160734454E-16  -5.47895450813504E-14
     -4.98397242634942E-17
      9.14275555555556E-01
      9.14275555555556E-01   9.14275555555556E-01   0.00000000000000E+00   0.00000000000000E+00   5.65527232209536E-14
      1.40034356144783E-18   5.65541235645150E-14   5.07012875967909E-17   0.00000000000000E+00   0.00000000000000E+00
      0.00000000000000E+00   0.00000000000000E+00  -5.60624531034625E-14  -4.91670461052579E-16  -5.65541235645151E-14
     -5.07012875967908E-17
      9.64275555555556E-01
      9.64275555555556E-01   9.64275555555556E-01   0.00000000000000E+00   0.00000000000000E+00   5.82746957896543E-14
      1.40076973154872E-18   5.82760965593859E-14   5.15820192923764E-17   0.00000000000000E+00   0.00000000000000E+00
      0.00000000000000E+00   0.00000000000000E+00  -5.77774479319531E-14  -4.98648627432717E-16  -5.82760965593858E-14
     -5.15820192923766E-17
      1.00000000000000E+00
      1.00000000000000E+00   1.00000000000000E+00   0.00000000000000E+00   0.00000000000000E+00   5.94796829344024E-14
      1.42154990568530E-18   5.94811044843081E-14   5.22227337761380E-17   0.00000000000000E+00   0.00000000000000E+00
      0.00000000000000E+00   0.00000000000000E+00  -5.89778320113903E-14  -5.03272472917783E-16  -5.94811044843081E-14
     -5.22227337761381E-17
}
