DF-ISE text

Info {
  version   = 1.0
  type      = xyplot
  datasets  = [
    "time"
    "top OuterVoltage" "top InnerVoltage" "top QuasiFermiPotential" "top DisplacementCurrent" "top eCurrent"
    "top hCurrent" "top TotalCurrent" "top Charge" "bottom OuterVoltage" "bottom InnerVoltage"
    "bottom QuasiFermiPotential" "bottom DisplacementCurrent" "bottom eCurrent" "bottom hCurrent" "bottom TotalCurrent"
    "bottom Charge" ]
  functions = [
    Time
    OuterVoltage InnerVoltage QuasiFermiPotential DisplacementCurrent eCurrent
    hCurrent TotalCurrent Charge OuterVoltage InnerVoltage
    QuasiFermiPotential DisplacementCurrent eCurrent hCurrent TotalCurrent
    Charge ]
}

Data {
      0.00000000000000E+00
      0.00000000000000E+00   0.00000000000000E+00   0.00000000000000E+00   0.00000000000000E+00   9.08617478055528E-22
      3.23023163791239E-30   9.08617481285760E-22   4.61187609719382E-17   0.00000000000000E+00   0.00000000000000E+00
      0.00000000000000E+00   0.00000000000000E+00  -9.08617478205535E-22  -3.08022588400778E-30  -9.08617481285761E-22
     -4.61187609719381E-17
      0.00000000000000E+00
      0.00000000000000E+00   0.00000000000000E+00   0.00000000000000E+00   0.00000000000000E+00  -1.53866900528250E-20
      2.07059805874608E-31  -1.53866900526179E-20   4.61194900000056E-17   0.00000000000000E+00   0.00000000000000E+00
      0.00000000000000E+00   0.00000000000000E+00   1.53866900533560E-20  -7.38153804215504E-31   1.53866900526179E-20
     -4.61194900000056E-17
      1.00000000000000E-02
      1.00000000000000E-02   1.00000000000000E-02   0.00000000000000E+00   0.00000000000000E+00   5.90355050209575E-15
      2.40968242750743E-20   5.90357459892003E-15   4.62109248917657E-17   0.00000000000000E+00   0.00000000000000E+00
      0.00000000000000E+00   0.00000000000000E+00  -5.87391944924224E-15  -2.96551496777922E-17  -5.90357459892003E-15
     -4.62109248917657E-17
      2.89333333333333E-02
      2.89333333333333E-02   2.89333333333333E-02   0.00000000000000E+00   0.00000000000000E+00   1.29921878568322E-14
     -3.95488790765288E-19   1.29917923680415E-14   4.63871572731739E-17   0.00000000000000E+00   0.00000000000000E+00
      0.00000000000000E+00   0.00000000000000E+00  -1.29183972373989E-14  -7.33951306425706E-17  -1.29917923680415E-14
     -4.63871572731738E-17
      4.63520000000000E-02
      4.63520000000000E-02   4.63520000000000E-02   0.00000000000000E+00   0.00000000000000E+00   1.68296153899360E-14
      9.21946373148881E-20   1.68297075845733E-14   4.65528795293090E-17   0.00000000000000E+00   0.00000000000000E+00
      0.00000000000000E+00   0.00000000000000E+00  -1.67247574439252E-14  -1.04950140648053E-16  -1.68297075845733E-14
     -4.65528795293090E-17
      6.23771733333333E-02
      6.23771733333333E-02   6.23771733333333E-02   0.00000000000000E+00   0.00000000000000E+00   1.90825916903886E-14
      6.69505416535075E-20   1.90826586409303E-14   4.67083658314055E-17   0.00000000000000E+00   0.00000000000000E+00
      0.00000000000000E+00   0.00000000000000E+00  -1.89544545863902E-14  -1.28204054540088E-16  -1.90826586409302E-14
     -4.67083658314055E-17
      7.71203328000000E-02
      7.71203328000000E-02   7.71203328000000E-02   0.00000000000000E+00   0.00000000000000E+00   2.05671510371942E-14
      6.93964596365127E-20   2.05672204336538E-14   4.68539567033769E-17   0.00000000000000E+00   0.00000000000000E+00
      0.00000000000000E+00   0.00000000000000E+00  -2.04206685885380E-14  -1.46551845115831E-16  -2.05672204336538E-14
     -4.68539567033770E-17
      9.06840395093333E-02
      9.06840395093333E-02   9.06840395093333E-02   0.00000000000000E+00   0.00000000000000E+00   2.16451273425614E-14
      7.07470985384495E-20   2.16451980896599E-14   4.69900407672225E-17   0.00000000000000E+00   0.00000000000000E+00
      0.00000000000000E+00   0.00000000000000E+00  -2.14836321295158E-14  -1.61565960144112E-16  -2.16451980896599E-14
     -4.69900407672225E-17
      1.03343499104711E-01
      1.03343499104711E-01   1.03343499104711E-01   0.00000000000000E+00   0.00000000000000E+00   2.25027855643341E-14
      7.13190650662224E-20   2.25028568833992E-14   4.71188926247530E-17   0.00000000000000E+00   0.00000000000000E+00
      0.00000000000000E+00   0.00000000000000E+00  -2.23284912167882E-14  -1.74365666610978E-16  -2.25028568833992E-14
     -4.71188926247530E-17
      1.15158994727064E-01
      1.15158994727064E-01   1.15158994727064E-01   0.00000000000000E+00   0.00000000000000E+00   2.32239174887893E-14
      7.15664576377018E-20   2.32239890552469E-14   4.72407481528054E-17   0.00000000000000E+00   0.00000000000000E+00
      0.00000000000000E+00   0.00000000000000E+00  -2.30385082194196E-14  -1.85480835827374E-16  -2.32239890552469E-14
     -4.72407481528054E-17
      1.37214586555455E-01
      1.37214586555455E-01   1.37214586555455E-01   0.00000000000000E+00   0.00000000000000E+00   2.44554305396860E-14
      7.18245314328852E-20   2.44555023642174E-14   4.74722987733679E-17   0.00000000000000E+00   0.00000000000000E+00
      0.00000000000000E+00   0.00000000000000E+00  -2.42509421371597E-14  -2.04560227057686E-16  -2.44555023642174E-14
     -4.74722987733678E-17
      1.54270910902745E-01
      1.54270910902745E-01   1.54270910902745E-01   0.00000000000000E+00   0.00000000000000E+00   2.53535891438412E-14
      7.15348947659651E-20   2.53536606787360E-14   4.76549833384146E-17   0.00000000000000E+00   0.00000000000000E+00
      0.00000000000000E+00   0.00000000000000E+00  -2.51355270770308E-14  -2.18133601705219E-16  -2.53536606787360E-14
     -4.76549833384145E-17
      1.69962729302251E-01
      1.69962729302251E-01   1.69962729302251E-01   0.00000000000000E+00   0.00000000000000E+00   2.61585000411222E-14
      6.96185575943138E-20   2.61585696596798E-14   4.78258141920899E-17   0.00000000000000E+00   0.00000000000000E+00
      0.00000000000000E+00   0.00000000000000E+00  -2.59286903498007E-14  -2.29879309879094E-16  -2.61585696596798E-14
     -4.78258141920900E-17
      1.84608426475123E-01
      1.84608426475123E-01   1.84608426475123E-01   0.00000000000000E+00   0.00000000000000E+00   2.68984969586451E-14
      7.18036706246315E-20   2.68985687623157E-14   4.79876232102080E-17   0.00000000000000E+00   0.00000000000000E+00
      0.00000000000000E+00   0.00000000000000E+00  -2.66582783514227E-14  -2.40290410893042E-16  -2.68985687623157E-14
     -4.79876232102079E-17
      1.98277743836471E-01
      1.98277743836471E-01   1.98277743836471E-01   0.00000000000000E+00   0.00000000000000E+00   2.75823581751763E-14
      5.39886273588492E-20   2.75824121638036E-14   4.81406899483760E-17   0.00000000000000E+00   0.00000000000000E+00
      0.00000000000000E+00   0.00000000000000E+00  -2.73328588468839E-14  -2.49553316919725E-16  -2.75824121638036E-14
     -4.81406899483760E-17
      2.11035773373729E-01
      2.11035773373729E-01   2.11035773373729E-01   0.00000000000000E+00   0.00000000000000E+00   2.82158952995413E-14
      7.20456326879254E-20   2.82159673451739E-14   4.82853197554174E-17   0.00000000000000E+00   0.00000000000000E+00
      0.00000000000000E+00   0.00000000000000E+00  -2.79580811692068E-14  -2.57886175967160E-16  -2.82159673451740E-14
     -4.82853197554174E-17
      2.22943267608503E-01
      2.22943267608503E-01   2.22943267608503E-01   0.00000000000000E+00   0.00000000000000E+00   2.88034158661237E-14
      7.19164693552034E-20   2.88034877825930E-14   4.84218358545661E-17   0.00000000000000E+00   0.00000000000000E+00
      0.00000000000000E+00   0.00000000000000E+00  -2.85381231387541E-14  -2.65364643838947E-16  -2.88034877825930E-14
     -4.84218358545661E-17
      2.45488123359675E-01
      2.45488123359675E-01   2.45488123359675E-01   0.00000000000000E+00   0.00000000000000E+00   2.99077268542538E-14
      7.19395263644636E-20   2.99077987937802E-14   4.86843103823515E-17   0.00000000000000E+00   0.00000000000000E+00
      0.00000000000000E+00   0.00000000000000E+00  -2.96289641177959E-14  -2.78834675984339E-16  -2.99077987937802E-14
     -4.86843103823515E-17
      2.62321615653883E-01
      2.62321615653883E-01   2.62321615653883E-01   0.00000000000000E+00   0.00000000000000E+00   3.07252333638688E-14
      3.33950926519645E-19   3.07255673147953E-14   4.88836733613291E-17   0.00000000000000E+00   0.00000000000000E+00
      0.00000000000000E+00   0.00000000000000E+00  -3.04369535656286E-14  -2.88613749166623E-16  -3.07255673147952E-14
     -4.88836733613292E-17
      2.78032875128478E-01
      2.78032875128478E-01   2.78032875128478E-01   0.00000000000000E+00   0.00000000000000E+00   3.14825065044677E-14
      7.18572527920350E-20   3.14825783617205E-14   4.90723249070990E-17   0.00000000000000E+00   0.00000000000000E+00
      0.00000000000000E+00   0.00000000000000E+00  -3.11857329755474E-14  -2.96845386173124E-16  -3.14825783617205E-14
     -4.90723249070990E-17
      2.92068266925782E-01
      2.92068266925782E-01   2.92068266925782E-01   0.00000000000000E+00   0.00000000000000E+00   3.21547272415947E-14
     -5.32759400665511E-22   3.21547267088353E-14   4.92429394508828E-17   0.00000000000000E+00   0.00000000000000E+00
      0.00000000000000E+00   0.00000000000000E+00  -3.18506536571674E-14  -3.04073051667865E-16  -3.21547267088353E-14
     -4.92429394508829E-17
      3.05167965936600E-01
      3.05167965936600E-01   3.05167965936600E-01   0.00000000000000E+00   0.00000000000000E+00   3.27783394276258E-14
      3.42686269029882E-20   3.27783736962527E-14   4.94039395716627E-17   0.00000000000000E+00   0.00000000000000E+00
      0.00000000000000E+00   0.00000000000000E+00  -3.24676905002505E-14  -3.10683196002197E-16  -3.27783736962527E-14
     -4.94039395716627E-17
      3.17219689026552E-01
      3.17219689026552E-01   3.17219689026552E-01   0.00000000000000E+00   0.00000000000000E+00   3.33488168351937E-14
      7.82739853690551E-20   3.33488951091791E-14   4.95535479273679E-17   0.00000000000000E+00   0.00000000000000E+00
      0.00000000000000E+00   0.00000000000000E+00  -3.30323047031216E-14  -3.16590406057432E-16  -3.33488951091791E-14
     -4.95535479273678E-17
      3.28307274269308E-01
      3.28307274269308E-01   3.28307274269308E-01   0.00000000000000E+00   0.00000000000000E+00   3.38708807067175E-14
      7.18065450012847E-20   3.38709525132625E-14   4.96924374855880E-17   0.00000000000000E+00   0.00000000000000E+00
      0.00000000000000E+00   0.00000000000000E+00  -3.35491271698746E-14  -3.21825343387990E-16  -3.38709525132626E-14
     -4.96924374855880E-17
      3.49004100055786E-01
      3.49004100055786E-01   3.49004100055786E-01   0.00000000000000E+00   0.00000000000000E+00   3.48383291985631E-14
      6.89511908214243E-20   3.48383981497539E-14   4.99548724208672E-17   0.00000000000000E+00   0.00000000000000E+00
      0.00000000000000E+00   0.00000000000000E+00  -3.45071624191507E-14  -3.31235730603212E-16  -3.48383981497540E-14
     -4.99548724208670E-17
      3.67769222102192E-01
      3.67769222102192E-01   3.67769222102192E-01   0.00000000000000E+00   0.00000000000000E+00   3.57073602160595E-14
      7.21657796674799E-20   3.57074323818391E-14   5.01963474419170E-17   0.00000000000000E+00   0.00000000000000E+00
      0.00000000000000E+00   0.00000000000000E+00  -3.53680571536179E-14  -3.39375228221301E-16  -3.57074323818392E-14
     -5.01963474419169E-17
      3.85033134384886E-01
      3.85033134384886E-01   3.85033134384886E-01   0.00000000000000E+00   0.00000000000000E+00   3.65000697955099E-14
      7.18425278041992E-20   3.65001416380377E-14   5.04214358774411E-17   0.00000000000000E+00   0.00000000000000E+00
      0.00000000000000E+00   0.00000000000000E+00  -3.61536006538885E-14  -3.46540984149248E-16  -3.65001416380378E-14
     -5.04214358774411E-17
      4.00915933684965E-01
      4.00915933684965E-01   4.00915933684965E-01   0.00000000000000E+00   0.00000000000000E+00   3.72264801623926E-14
      7.04905825556148E-20   3.72265506529751E-14   5.06309697708550E-17   0.00000000000000E+00   0.00000000000000E+00
      0.00000000000000E+00   0.00000000000000E+00  -3.68736777799472E-14  -3.52872873027971E-16  -3.72265506529751E-14
     -5.06309697708550E-17
      4.15739879698371E-01
      4.15739879698371E-01   4.15739879698371E-01   0.00000000000000E+00   0.00000000000000E+00   3.78940224386126E-14
      6.97423520570102E-20   3.78940921809647E-14   5.08286324711296E-17   0.00000000000000E+00   0.00000000000000E+00
      0.00000000000000E+00   0.00000000000000E+00  -3.75355246324232E-14  -3.58567548541592E-16  -3.78940921809648E-14
     -5.08286324711294E-17
      4.29575562644218E-01
      4.29575562644218E-01   4.29575562644218E-01   0.00000000000000E+00   0.00000000000000E+00   3.85151867287803E-14
      9.21551993334257E-21   3.85151959443002E-14   5.10149266342924E-17   0.00000000000000E+00   0.00000000000000E+00
      0.00000000000000E+00   0.00000000000000E+00  -3.81515500402650E-14  -3.63645904035333E-16  -3.85151959443003E-14
     -5.10149266342923E-17
      4.42488866727007E-01
      4.42488866727007E-01   4.42488866727007E-01   0.00000000000000E+00   0.00000000000000E+00   3.90912771972204E-14
      1.30879496889005E-20   3.90912902851701E-14   5.11903621104861E-17   0.00000000000000E+00   0.00000000000000E+00
      0.00000000000000E+00   0.00000000000000E+00  -3.87229994024975E-14  -3.68290882672543E-16  -3.90912902851700E-14
     -5.11903621104860E-17
      4.54369106483174E-01
      4.54369106483174E-01   4.54369106483174E-01   0.00000000000000E+00   0.00000000000000E+00   3.96180049161875E-14
      6.78582037594347E-20   3.96180727743912E-14   5.13530820565470E-17   0.00000000000000E+00   0.00000000000000E+00
      0.00000000000000E+00   0.00000000000000E+00  -3.92455760901905E-14  -3.72496684200790E-16  -3.96180727743913E-14
     -5.13530820565470E-17
      4.76545554028018E-01
      4.76545554028018E-01   4.76545554028018E-01   0.00000000000000E+00   0.00000000000000E+00   4.05930637037151E-14
      7.19622408849746E-20   4.05931356659560E-14   5.16601722463952E-17   0.00000000000000E+00   0.00000000000000E+00
      0.00000000000000E+00   0.00000000000000E+00  -4.02131750413728E-14  -3.79960624583167E-16  -4.05931356659559E-14
     -5.16601722463952E-17
      4.93991026096629E-01
      4.93991026096629E-01   4.93991026096629E-01   0.00000000000000E+00   0.00000000000000E+00   4.13525094473105E-14
      7.18105280270211E-20   4.13525812578385E-14   5.19047759808228E-17   0.00000000000000E+00   0.00000000000000E+00
      0.00000000000000E+00   0.00000000000000E+00  -4.09669944827328E-14  -3.85586775105684E-16  -4.13525812578384E-14
     -5.19047759808229E-17
      5.10040860399751E-01
      5.10040860399751E-01   5.10040860399751E-01   0.00000000000000E+00   0.00000000000000E+00   4.20440578741317E-14
      7.36941872597165E-20   4.20441315683190E-14   5.21321344745069E-17   0.00000000000000E+00   0.00000000000000E+00
      0.00000000000000E+00   0.00000000000000E+00  -4.16535360727777E-14  -3.90595495541473E-16  -4.20441315683191E-14
     -5.21321344745069E-17
      5.25020705749331E-01
      5.25020705749331E-01   5.25020705749331E-01   0.00000000000000E+00   0.00000000000000E+00   4.26913200370026E-14
      7.28771155036624E-20   4.26913929141181E-14   5.23463215100043E-17   0.00000000000000E+00   0.00000000000000E+00
      0.00000000000000E+00   0.00000000000000E+00  -4.22962578897205E-14  -3.95135024397636E-16  -4.26913929141182E-14
     -5.23463215100044E-17
      5.39001894742273E-01
      5.39001894742273E-01   5.39001894742273E-01   0.00000000000000E+00   0.00000000000000E+00   4.32819188322085E-14
      1.29997875637083E-21   4.32819201321873E-14   5.25479408950071E-17   0.00000000000000E+00   0.00000000000000E+00
      0.00000000000000E+00   0.00000000000000E+00  -4.28827223257489E-14  -3.99197806438409E-16  -4.32819201321873E-14
     -5.25479408950071E-17
      5.52051004469019E-01
      5.52051004469019E-01   5.52051004469019E-01   0.00000000000000E+00   0.00000000000000E+00   4.38332434169568E-14
      7.18982879484602E-20   4.38333153152448E-14   5.27375950499227E-17   0.00000000000000E+00   0.00000000000000E+00
      0.00000000000000E+00   0.00000000000000E+00  -4.34302786142130E-14  -4.03036701031741E-16  -4.38333153152448E-14
     -5.27375950499229E-17
      5.64056185417625E-01
      5.64056185417625E-01   5.64056185417625E-01   0.00000000000000E+00   0.00000000000000E+00   4.43372935048726E-14
      7.19254663770691E-20   4.43373654303390E-14   5.29133238878982E-17   0.00000000000000E+00   0.00000000000000E+00
      0.00000000000000E+00   0.00000000000000E+00  -4.39309273975484E-14  -4.06438032790590E-16  -4.43373654303390E-14
     -5.29133238878981E-17
      5.86785994680319E-01
      5.86785994680319E-01   5.86785994680319E-01   0.00000000000000E+00   0.00000000000000E+00   4.52832894746416E-14
      7.19303310397382E-20   4.52833614049726E-14   5.32492731220180E-17   0.00000000000000E+00   0.00000000000000E+00
      0.00000000000000E+00   0.00000000000000E+00  -4.48706508932978E-14  -4.12710511674969E-16  -4.52833614049728E-14
     -5.32492731220181E-17
      6.04666777966972E-01
      6.04666777966972E-01   6.04666777966972E-01   0.00000000000000E+00   0.00000000000000E+00   4.60199419456509E-14
      7.17903823809546E-20   4.60200137360333E-14   5.35164918923623E-17   0.00000000000000E+00   0.00000000000000E+00
      0.00000000000000E+00   0.00000000000000E+00  -4.56025153340228E-14  -4.17498402010476E-16  -4.60200137360333E-14
     -5.35164918923623E-17
      6.21117098590692E-01
      6.21117098590692E-01   6.21117098590692E-01   0.00000000000000E+00   0.00000000000000E+00   4.66918116495722E-14
      7.16818976752246E-20   4.66918833314698E-14   5.37645873102005E-17   0.00000000000000E+00   0.00000000000000E+00
      0.00000000000000E+00   0.00000000000000E+00  -4.62700906173686E-14  -4.21792714101305E-16  -4.66918833314699E-14
     -5.37645873102005E-17
      6.36251393564515E-01
      6.36251393564515E-01   6.36251393564515E-01   0.00000000000000E+00   0.00000000000000E+00   4.73038718583827E-14
      7.74195272997439E-20   4.73039492779100E-14   5.39947201510186E-17   0.00000000000000E+00   0.00000000000000E+00
      0.00000000000000E+00   0.00000000000000E+00  -4.68782933414737E-14  -4.25655936436348E-16  -4.73039492779100E-14
     -5.39947201510186E-17
      6.50376735540083E-01
      6.50376735540083E-01   6.50376735540083E-01   0.00000000000000E+00   0.00000000000000E+00   4.78732601538728E-14
      2.28995938587683E-21   4.78732624438322E-14   5.42111225547154E-17   0.00000000000000E+00   0.00000000000000E+00
      0.00000000000000E+00   0.00000000000000E+00  -4.74441602960998E-14  -4.29102147732421E-16  -4.78732624438323E-14
     -5.42111225547155E-17
      6.63560388050613E-01
      6.63560388050613E-01   6.63560388050613E-01   0.00000000000000E+00   0.00000000000000E+00   4.83999326918357E-14
      2.29803027818261E-20   4.83999556721385E-14   5.44144875926419E-17   0.00000000000000E+00   0.00000000000000E+00
      0.00000000000000E+00   0.00000000000000E+00  -4.79676230979099E-14  -4.32332574228544E-16  -4.83999556721384E-14
     -5.44144875926420E-17
      6.75689348360300E-01
      6.75689348360300E-01   6.75689348360300E-01   0.00000000000000E+00   0.00000000000000E+00   4.88813450764383E-14
      6.76186075942517E-20   4.88814126950459E-14   5.46027568296923E-17   0.00000000000000E+00   0.00000000000000E+00
      0.00000000000000E+00   0.00000000000000E+00  -4.84461440063581E-14  -4.35268688687749E-16  -4.88814126950459E-14
     -5.46027568296923E-17
      6.86847991845213E-01
      6.86847991845213E-01   6.86847991845213E-01   0.00000000000000E+00   0.00000000000000E+00   4.93216702445586E-14
      2.04730003219417E-20   4.93216907175589E-14   5.47769487880129E-17   0.00000000000000E+00   0.00000000000000E+00
      0.00000000000000E+00   0.00000000000000E+00  -4.88838622422988E-14  -4.37828475260115E-16  -4.93216907175589E-14
     -5.47769487880130E-17
      6.97113943851333E-01
      6.97113943851333E-01   6.97113943851333E-01   0.00000000000000E+00   0.00000000000000E+00   4.97245414019406E-14
      4.08935741756143E-19   4.97249503376823E-14   5.49380315734839E-17   0.00000000000000E+00   0.00000000000000E+00
      0.00000000000000E+00   0.00000000000000E+00  -4.92843842282244E-14  -4.40566109457912E-16  -4.97249503376823E-14
     -5.49380315734838E-17
      7.16277054262756E-01
      7.16277054262756E-01   7.16277054262756E-01   0.00000000000000E+00   0.00000000000000E+00   5.04710458509134E-14
      6.74342247836000E-20   5.04711132851382E-14   5.52408166028003E-17   0.00000000000000E+00   0.00000000000000E+00
      0.00000000000000E+00   0.00000000000000E+00  -5.00266247719301E-14  -4.44488513208068E-16  -5.04711132851382E-14
     -5.52408166028002E-17
      7.33396099563628E-01
      7.33396099563628E-01   7.33396099563628E-01   0.00000000000000E+00   0.00000000000000E+00   5.11318883724008E-14
      7.03152656869451E-20   5.11319586876665E-14   5.55135876867192E-17   0.00000000000000E+00   0.00000000000000E+00
      0.00000000000000E+00   0.00000000000000E+00  -5.06837963468711E-14  -4.48162340795435E-16  -5.11319586876666E-14
     -5.55135876867193E-17
      7.49145621240429E-01
      7.49145621240429E-01   7.49145621240429E-01   0.00000000000000E+00   0.00000000000000E+00   5.17325570646254E-14
      8.67493604477366E-20   5.17326438139859E-14   5.57664153559165E-17   0.00000000000000E+00   0.00000000000000E+00
      0.00000000000000E+00   0.00000000000000E+00  -5.12812046425588E-14  -4.51439171427054E-16  -5.17326438139859E-14
     -5.57664153559165E-17
      7.63845174805444E-01
      7.63845174805444E-01   7.63845174805444E-01   0.00000000000000E+00   0.00000000000000E+00   5.22931582307384E-14
      6.96497141723463E-20   5.22932278804526E-14   5.60039926087619E-17   0.00000000000000E+00   0.00000000000000E+00
      0.00000000000000E+00   0.00000000000000E+00  -5.18388637153758E-14  -4.54364165076719E-16  -5.22932278804526E-14
     -5.60039926087618E-17
      7.77564758132792E-01
      7.77564758132792E-01   7.77564758132792E-01   0.00000000000000E+00   0.00000000000000E+00   5.28104903024300E-14
      6.63955888137672E-20   5.28105566980188E-14   5.62271138708114E-17   0.00000000000000E+00   0.00000000000000E+00
      0.00000000000000E+00   0.00000000000000E+00  -5.23535377424746E-14  -4.57018955544189E-16  -5.28105566980188E-14
     -5.62271138708114E-17
      7.90369702571649E-01
      7.90369702571649E-01   7.90369702571649E-01   0.00000000000000E+00   0.00000000000000E+00   5.32883424622601E-14
      7.05933303231266E-20   5.32884130555904E-14   5.64365522433596E-17   0.00000000000000E+00   0.00000000000000E+00
      0.00000000000000E+00   0.00000000000000E+00  -5.28289846113574E-14  -4.59428444232934E-16  -5.32884130555904E-14
     -5.64365522433597E-17
      8.02491716640434E-01
      8.02491716640434E-01   8.02491716640434E-01   0.00000000000000E+00   0.00000000000000E+00   5.37414237772063E-14
      7.19285936074466E-20   5.37414957057999E-14   5.66358706111673E-17   0.00000000000000E+00   0.00000000000000E+00
      0.00000000000000E+00   0.00000000000000E+00  -5.32798549931383E-14  -4.61640712661728E-16  -5.37414957058000E-14
     -5.66358706111674E-17
      8.25442729944001E-01
      8.25442729944001E-01   8.25442729944001E-01   0.00000000000000E+00   0.00000000000000E+00   5.45884015738484E-14
      7.19351872523926E-20   5.45884735090357E-14   5.70160103442883E-17   0.00000000000000E+00   0.00000000000000E+00
      0.00000000000000E+00   0.00000000000000E+00  -5.41228175150725E-14  -4.65655993963188E-16  -5.45884735090357E-14
     -5.70160103442884E-17
      8.44721581118997E-01
      8.44721581118997E-01   8.44721581118997E-01   0.00000000000000E+00   0.00000000000000E+00   5.52922778888799E-14
      7.18274930651951E-20   5.52923497163729E-14   5.73380846066618E-17   0.00000000000000E+00   0.00000000000000E+00
      0.00000000000000E+00   0.00000000000000E+00  -5.48234861478579E-14  -4.68863568515029E-16  -5.52923497163729E-14
     -5.73380846066617E-17
      8.62458124199993E-01
      8.62458124199993E-01   8.62458124199993E-01   0.00000000000000E+00   0.00000000000000E+00   5.59337802434966E-14
      7.11033164500720E-20   5.59338513468131E-14   5.76365824219087E-17   0.00000000000000E+00   0.00000000000000E+00
      0.00000000000000E+00   0.00000000000000E+00  -5.54621626139320E-14  -4.71688732881079E-16  -5.59338513468130E-14
     -5.76365824219087E-17
      8.78775743834509E-01
      8.78775743834509E-01   8.78775743834509E-01   0.00000000000000E+00   0.00000000000000E+00   5.65190384021444E-14
      7.17440324410381E-20   5.65191101461768E-14   5.79130285668640E-17   0.00000000000000E+00   0.00000000000000E+00
      0.00000000000000E+00   0.00000000000000E+00  -5.60449201427285E-14  -4.74190003448378E-16  -5.65191101461769E-14
     -5.79130285668639E-17
      8.93787953898265E-01
      8.93787953898265E-01   8.93787953898265E-01   0.00000000000000E+00   0.00000000000000E+00   5.70518152398097E-14
      8.66032178049606E-20   5.70519018430275E-14   5.81688870918908E-17   0.00000000000000E+00   0.00000000000000E+00
      0.00000000000000E+00   0.00000000000000E+00  -5.65754748668098E-14  -4.76426976217653E-16  -5.70519018430274E-14
     -5.81688870918907E-17
      9.07799349957769E-01
      9.07799349957769E-01   9.07799349957769E-01   0.00000000000000E+00   0.00000000000000E+00   5.75483547409662E-14
      1.48374733888236E-21   5.75483562247136E-14   5.84089943532359E-17   0.00000000000000E+00   0.00000000000000E+00
      0.00000000000000E+00   0.00000000000000E+00  -5.70700005344191E-14  -4.78355690294513E-16  -5.75483562247136E-14
     -5.84089943532359E-17
      9.20876652946641E-01
      9.20876652946641E-01   9.20876652946641E-01   0.00000000000000E+00   0.00000000000000E+00   5.80073071192242E-14
      1.66341113576910E-19   5.80074734603377E-14   5.86342198981046E-17   0.00000000000000E+00   0.00000000000000E+00
      0.00000000000000E+00   0.00000000000000E+00  -5.75271290893245E-14  -4.80344371013240E-16  -5.80074734603378E-14
     -5.86342198981045E-17
      9.32907771696402E-01
      9.32907771696402E-01   9.32907771696402E-01   0.00000000000000E+00   0.00000000000000E+00   5.84269473935856E-14
      8.66936819637888E-19   5.84278143304053E-14   5.88423775191493E-17   0.00000000000000E+00   0.00000000000000E+00
      0.00000000000000E+00   0.00000000000000E+00  -5.79451227523222E-14  -4.82691578083062E-16  -5.84278143304052E-14
     -5.88423775191491E-17
      9.44136815862846E-01
      9.44136815862846E-01   9.44136815862846E-01   0.00000000000000E+00   0.00000000000000E+00   5.88162889895532E-14
      2.06277827087571E-20   5.88163096173359E-14   5.90374718322206E-17   0.00000000000000E+00   0.00000000000000E+00
      0.00000000000000E+00   0.00000000000000E+00  -5.83329741584260E-14  -4.83335458909847E-16  -5.88163096173359E-14
     -5.90374718322206E-17
      9.64798257129103E-01
      9.64798257129103E-01   9.64798257129103E-01   0.00000000000000E+00   0.00000000000000E+00   5.95272019188058E-14
      8.18641777481543E-20   5.95272837829835E-14   5.93984754580216E-17   0.00000000000000E+00   0.00000000000000E+00
      0.00000000000000E+00   0.00000000000000E+00  -5.90412074714254E-14  -4.86076311558142E-16  -5.95272837829835E-14
     -5.93984754580215E-17
      9.82399128564551E-01
      9.82399128564551E-01   9.82399128564551E-01   0.00000000000000E+00   0.00000000000000E+00   6.01271693795656E-14
      7.14860158251753E-20   6.01272408655814E-14   5.97080524216721E-17   0.00000000000000E+00   0.00000000000000E+00
      0.00000000000000E+00   0.00000000000000E+00  -5.96389602677652E-14  -4.88280597816151E-16  -6.01272408655813E-14
     -5.97080524216720E-17
      1.00000000000000E+00
      1.00000000000000E+00   1.00000000000000E+00   0.00000000000000E+00   0.00000000000000E+00   6.07219441572783E-14
      7.17002840635076E-20   6.07220158575624E-14   6.00194871972028E-17   0.00000000000000E+00   0.00000000000000E+00
      0.00000000000000E+00   0.00000000000000E+00  -6.02315753866286E-14  -4.90440470933874E-16  -6.07220158575625E-14
     -6.00194871972029E-17
}
