DF-ISE text

Info {
  version   = 1.0
  type      = xyplot
  datasets  = [
    "time"
    "top OuterVoltage" "top InnerVoltage" "top QuasiFermiPotential" "top DisplacementCurrent" "top eCurrent"
    "top hCurrent" "top TotalCurrent" "top Charge" "bottom OuterVoltage" "bottom InnerVoltage"
    "bottom QuasiFermiPotential" "bottom DisplacementCurrent" "bottom eCurrent" "bottom hCurrent" "bottom TotalCurrent"
    "bottom Charge" ]
  functions = [
    Time
    OuterVoltage InnerVoltage QuasiFermiPotential DisplacementCurrent eCurrent
    hCurrent TotalCurrent Charge OuterVoltage InnerVoltage
    QuasiFermiPotential DisplacementCurrent eCurrent hCurrent TotalCurrent
    Charge ]
}

Data {
      0.00000000000000E+00
      0.00000000000000E+00   0.00000000000000E+00   0.00000000000000E+00   0.00000000000000E+00  -7.04078594420384E-21
      2.39191157863640E-31  -7.04078594396465E-21   6.94917747629117E-17   0.00000000000000E+00   0.00000000000000E+00
      0.00000000000000E+00   0.00000000000000E+00   7.04078594415848E-21  -1.93824879489244E-31   7.04078594396466E-21
     -6.94917747629117E-17
      0.00000000000000E+00
      0.00000000000000E+00   0.00000000000000E+00   0.00000000000000E+00   0.00000000000000E+00  -1.57539538671064E-15
      2.78493291763846E-27  -1.57539538670786E-15   6.94919373206961E-17   0.00000000000000E+00   0.00000000000000E+00
      0.00000000000000E+00   0.00000000000000E+00   1.57539538671072E-15  -2.86683433696046E-27   1.57539538670785E-15
     -6.94919373206962E-17
      1.00000000000000E-02
      1.00000000000000E-02   1.00000000000000E-02   0.00000000000000E+00   0.00000000000000E+00   6.58897271678367E-15
      2.69795575402756E-21   6.58897541473942E-15   6.95578204646006E-17   0.00000000000000E+00   0.00000000000000E+00
      0.00000000000000E+00   0.00000000000000E+00  -6.56073007203695E-15  -2.82453427024845E-17  -6.58897541473943E-15
     -6.95578204646006E-17
      1.93333333333333E-02
      1.93333333333333E-02   1.93333333333333E-02   0.00000000000000E+00   0.00000000000000E+00   1.10795606902993E-14
      4.42630376023427E-21   1.10795651166030E-14   6.96201432222606E-17   0.00000000000000E+00   0.00000000000000E+00
      0.00000000000000E+00   0.00000000000000E+00  -1.10290127661109E-14  -5.05523504920964E-17  -1.10795651166030E-14
     -6.96201432222606E-17
      2.81688888888889E-02
      2.81688888888889E-02   2.81688888888889E-02   0.00000000000000E+00   0.00000000000000E+00   1.42727856793005E-14
      5.57485921443137E-21   1.42727912541597E-14   6.96798814300021E-17   0.00000000000000E+00   0.00000000000000E+00
      0.00000000000000E+00   0.00000000000000E+00  -1.42039961499271E-14  -6.87951042325208E-17  -1.42727912541597E-14
     -6.96798814300022E-17
      4.48975407407407E-02
      4.48975407407407E-02   4.48975407407407E-02   0.00000000000000E+00   0.00000000000000E+00   1.84363310417906E-14
     -3.47637519059130E-20   1.84362962780387E-14   6.97949523947537E-17   0.00000000000000E+00   0.00000000000000E+00
      0.00000000000000E+00   0.00000000000000E+00  -1.83388047294445E-14  -9.74915485941917E-17  -1.84362962780387E-14
     -6.97949523947538E-17
      6.02879004444445E-02
      6.02879004444445E-02   6.02879004444445E-02   0.00000000000000E+00   0.00000000000000E+00   2.09148520168299E-14
      8.38672516062056E-21   2.09148604035551E-14   6.99030860976364E-17   0.00000000000000E+00   0.00000000000000E+00
      0.00000000000000E+00   0.00000000000000E+00  -2.07957348114737E-14  -1.19125592081384E-16  -2.09148604035551E-14
     -6.99030860976363E-17
      7.44470313718519E-02
      7.44470313718519E-02   7.44470313718519E-02   0.00000000000000E+00   0.00000000000000E+00   2.25399727711834E-14
      7.90786252412842E-21   2.25399806790460E-14   7.00044837929018E-17   0.00000000000000E+00   0.00000000000000E+00
      0.00000000000000E+00   0.00000000000000E+00  -2.24038358726484E-14  -1.36144806397590E-16  -2.25399806790460E-14
     -7.00044837929019E-17
      8.74734318250667E-02
      8.74734318250667E-02   8.74734318250667E-02   0.00000000000000E+00   0.00000000000000E+00   2.37059610973301E-14
      8.08944968234079E-21   2.37059691867798E-14   7.00993856394994E-17   0.00000000000000E+00   0.00000000000000E+00
      0.00000000000000E+00   0.00000000000000E+00  -2.35559090528630E-14  -1.50060133916812E-16  -2.37059691867798E-14
     -7.00993856394993E-17
      9.96314055814005E-02
      9.96314055814005E-02   9.96314055814005E-02   0.00000000000000E+00   0.00000000000000E+00   2.46200490122967E-14
      8.19190391164656E-21   2.46200572042006E-14   7.01893539084306E-17   0.00000000000000E+00   0.00000000000000E+00
      0.00000000000000E+00   0.00000000000000E+00  -2.44581490946496E-14  -1.61908109551012E-16  -2.46200572042006E-14
     -7.01893539084306E-17
      1.10816741437228E-01
      1.10816741437228E-01   1.10816741437228E-01   0.00000000000000E+00   0.00000000000000E+00   2.53674161440636E-14
      8.25079040577764E-21   2.53674243948540E-14   7.02733094298178E-17   0.00000000000000E+00   0.00000000000000E+00
      0.00000000000000E+00   0.00000000000000E+00  -2.51953825427875E-14  -1.72041852066593E-16  -2.53674243948541E-14
     -7.02733094298178E-17
      1.21256388236000E-01
      1.21256388236000E-01   1.21256388236000E-01   0.00000000000000E+00   0.00000000000000E+00   2.60127986505169E-14
      8.28607111664960E-21   2.60128069365880E-14   7.03526894540458E-17   0.00000000000000E+00   0.00000000000000E+00
      0.00000000000000E+00   0.00000000000000E+00  -2.58318496544666E-14  -1.80957282121438E-16  -2.60128069365881E-14
     -7.03526894540458E-17
      1.31000058581520E-01
      1.31000058581520E-01   1.31000058581520E-01   0.00000000000000E+00   0.00000000000000E+00   2.65847595510428E-14
      8.30765960495453E-21   2.65847678587024E-14   7.04276650068294E-17   0.00000000000000E+00   0.00000000000000E+00
      0.00000000000000E+00   0.00000000000000E+00  -2.63958900833264E-14  -1.88877775376019E-16  -2.65847678587024E-14
     -7.04276650068294E-17
      1.49188243226492E-01
      1.49188243226492E-01   1.49188243226492E-01   0.00000000000000E+00   0.00000000000000E+00   2.76036726817306E-14
      8.33012783653349E-21   2.76036810118584E-14   7.05699044860609E-17   0.00000000000000E+00   0.00000000000000E+00
      0.00000000000000E+00   0.00000000000000E+00  -2.74008882048242E-14  -2.02792807034329E-16  -2.76036810118585E-14
     -7.05699044860610E-17
      1.63496281813869E-01
      1.63496281813869E-01   1.63496281813869E-01   0.00000000000000E+00   0.00000000000000E+00   2.83760403911079E-14
      2.14345798332099E-20   2.83760618256877E-14   7.06838830075915E-17   0.00000000000000E+00   0.00000000000000E+00
      0.00000000000000E+00   0.00000000000000E+00  -2.81629864639132E-14  -2.13075361774492E-16  -2.83760618256877E-14
     -7.06838830075916E-17
      1.76850451162089E-01
      1.76850451162089E-01   1.76850451162089E-01   0.00000000000000E+00   0.00000000000000E+00   2.90874325232859E-14
      1.28334022415352E-20   2.90874453566881E-14   7.07919112755653E-17   0.00000000000000E+00   0.00000000000000E+00
      0.00000000000000E+00   0.00000000000000E+00  -2.88652578372463E-14  -2.22187519441882E-16  -2.90874453566881E-14
     -7.07919112755652E-17
      1.89314342553760E-01
      1.89314342553760E-01   1.89314342553760E-01   0.00000000000000E+00   0.00000000000000E+00   2.97431801126158E-14
      8.34251493150386E-21   2.97431884551307E-14   7.08941680878513E-17   0.00000000000000E+00   0.00000000000000E+00
      0.00000000000000E+00   0.00000000000000E+00  -2.95128557285353E-14  -2.30332726595344E-16  -2.97431884551307E-14
     -7.08941680878515E-17
      2.00947307852653E-01
      2.00947307852653E-01   2.00947307852653E-01   0.00000000000000E+00   0.00000000000000E+00   3.03491330250281E-14
      8.34522330041080E-21   3.03491413702514E-14   7.09908493551221E-17   0.00000000000000E+00   0.00000000000000E+00
      0.00000000000000E+00   0.00000000000000E+00  -3.01114917348192E-14  -2.37649635432288E-16  -3.03491413702515E-14
     -7.09908493551220E-17
      2.11804742131620E-01
      2.11804742131620E-01   2.11804742131620E-01   0.00000000000000E+00   0.00000000000000E+00   3.09107373833084E-14
      8.34446683439598E-21   3.09107457277752E-14   7.10821630641667E-17   0.00000000000000E+00   0.00000000000000E+00
      0.00000000000000E+00   0.00000000000000E+00  -3.06665008513035E-14  -2.44244876471874E-16  -3.09107457277753E-14
     -7.10821630641667E-17
      2.21938347458656E-01
      2.21938347458656E-01   2.21938347458656E-01   0.00000000000000E+00   0.00000000000000E+00   3.14318002341888E-14
      8.34584438409846E-21   3.14318085800332E-14   7.11683250990166E-17   0.00000000000000E+00   0.00000000000000E+00
      0.00000000000000E+00   0.00000000000000E+00  -3.11815988790191E-14  -2.50209701014120E-16  -3.14318085800332E-14
     -7.11683250990167E-17
      2.31531493834916E-01
      2.31531493834916E-01   2.31531493834916E-01   0.00000000000000E+00   0.00000000000000E+00   3.19225425442698E-14
      8.34594680299009E-21   3.19225508902166E-14   7.12507219080746E-17   0.00000000000000E+00   0.00000000000000E+00
      0.00000000000000E+00   0.00000000000000E+00  -3.16668545291539E-14  -2.55696361062651E-16  -3.19225508902166E-14
     -7.12507219080747E-17
      2.49694517640636E-01
      2.49694517640636E-01   2.49694517640636E-01   0.00000000000000E+00   0.00000000000000E+00   3.28450249297097E-14
      8.32502615488209E-21   3.28450332547358E-14   7.14089293934902E-17   0.00000000000000E+00   0.00000000000000E+00
      0.00000000000000E+00   0.00000000000000E+00  -3.25793473312388E-14  -2.65685923497084E-16  -3.28450332547359E-14
     -7.14089293934901E-17
      2.65677978589670E-01
      2.65677978589670E-01   2.65677978589670E-01   0.00000000000000E+00   0.00000000000000E+00   3.36499177686751E-14
      8.23553433342880E-21   3.36499260042095E-14   7.15505261512495E-17   0.00000000000000E+00   0.00000000000000E+00
      0.00000000000000E+00   0.00000000000000E+00  -3.33758511629231E-14  -2.74074841286366E-16  -3.36499260042094E-14
     -7.15505261512496E-17
      2.80382762662781E-01
      2.80382762662781E-01   2.80382762662781E-01   0.00000000000000E+00   0.00000000000000E+00   3.43808301053167E-14
      2.67423857654925E-20   3.43808568477025E-14   7.16827482936211E-17   0.00000000000000E+00   0.00000000000000E+00
      0.00000000000000E+00   0.00000000000000E+00  -3.40993555131022E-14  -2.81501334600200E-16  -3.43808568477024E-14
     -7.16827482936211E-17
      2.94107227797684E-01
      2.94107227797684E-01   2.94107227797684E-01   0.00000000000000E+00   0.00000000000000E+00   3.50654701769431E-14
      8.38320245782482E-21   3.50654785601455E-14   7.18078365303232E-17   0.00000000000000E+00   0.00000000000000E+00
      0.00000000000000E+00   0.00000000000000E+00  -3.47773353711776E-14  -2.88143188967861E-16  -3.50654785601455E-14
     -7.18078365303231E-17
      3.06916728590261E-01
      3.06916728590261E-01   3.06916728590261E-01   0.00000000000000E+00   0.00000000000000E+00   3.56967324058930E-14
      8.34457589329094E-21   3.56967407504689E-14   7.19260434472020E-17   0.00000000000000E+00   0.00000000000000E+00
      0.00000000000000E+00   0.00000000000000E+00  -3.54025935755852E-14  -2.94147174883790E-16  -3.56967407504689E-14
     -7.19260434472020E-17
      3.18872262663332E-01
      3.18872262663332E-01   3.18872262663332E-01   0.00000000000000E+00   0.00000000000000E+00   3.62819548147365E-14
      8.33959194988115E-21   3.62819631543284E-14   7.20376347054499E-17   0.00000000000000E+00   0.00000000000000E+00
      0.00000000000000E+00   0.00000000000000E+00  -3.59823906450994E-14  -2.99572509228964E-16  -3.62819631543284E-14
     -7.20376347054500E-17
      3.30030761131532E-01
      3.30030761131532E-01   3.30030761131532E-01   0.00000000000000E+00   0.00000000000000E+00   3.68250636368633E-14
      8.32712596354796E-21   3.68250719639893E-14   7.21428841011899E-17   0.00000000000000E+00   0.00000000000000E+00
      0.00000000000000E+00   0.00000000000000E+00  -3.65205864406533E-14  -3.04485523335943E-16  -3.68250719639893E-14
     -7.21428841011900E-17
      3.40445359701852E-01
      3.40445359701852E-01   3.40445359701852E-01   0.00000000000000E+00   0.00000000000000E+00   3.73290346310276E-14
      7.74939790945794E-21   3.73290423804255E-14   7.22420695167424E-17   0.00000000000000E+00   0.00000000000000E+00
      0.00000000000000E+00   0.00000000000000E+00  -3.70200992638613E-14  -3.08943116564171E-16  -3.73290423804255E-14
     -7.22420695167426E-17
      3.50304513015089E-01
      3.50304513015089E-01   3.50304513015089E-01   0.00000000000000E+00   0.00000000000000E+00   3.78036809633714E-14
      8.34603255385499E-21   3.78036893094039E-14   7.23368096849040E-17   0.00000000000000E+00   0.00000000000000E+00
      0.00000000000000E+00   0.00000000000000E+00  -3.74906350763149E-14  -3.13054233089126E-16  -3.78036893094040E-14
     -7.23368096849041E-17
      3.59637844818286E-01
      3.59637844818286E-01   3.59637844818286E-01   0.00000000000000E+00   0.00000000000000E+00   3.82506747644982E-14
      8.34602747312836E-21   3.82506831105256E-14   7.24272515585984E-17   0.00000000000000E+00   0.00000000000000E+00
      0.00000000000000E+00   0.00000000000000E+00  -3.79338329864126E-14  -3.16850124113031E-16  -3.82506831105256E-14
     -7.24272515585984E-17
      3.77308953032339E-01
      3.77308953032339E-01   3.77308953032339E-01   0.00000000000000E+00   0.00000000000000E+00   3.90934002915870E-14
      1.43895056018814E-20   3.90934146810927E-14   7.26004900970170E-17   0.00000000000000E+00   0.00000000000000E+00
      0.00000000000000E+00   0.00000000000000E+00  -3.87696145946212E-14  -3.23800086471329E-16  -3.90934146810925E-14
     -7.26004900970172E-17
      3.93566372589268E-01
      3.93566372589268E-01   3.93566372589268E-01   0.00000000000000E+00   0.00000000000000E+00   3.98573073863117E-14
      8.30644246651620E-21   3.98573156927541E-14   7.27621725736347E-17   0.00000000000000E+00   0.00000000000000E+00
      0.00000000000000E+00   0.00000000000000E+00  -3.95273975096731E-14  -3.29918183080968E-16  -3.98573156927541E-14
     -7.27621725736348E-17
      4.08523198581642E-01
      4.08523198581642E-01   4.08523198581642E-01   0.00000000000000E+00   0.00000000000000E+00   4.05563655864174E-14
      8.77486716825315E-21   4.05563743612846E-14   7.29128592027767E-17   0.00000000000000E+00   0.00000000000000E+00
      0.00000000000000E+00   0.00000000000000E+00  -4.02210278593270E-14  -3.35346501957599E-16  -4.05563743612846E-14
     -7.29128592027767E-17
      4.22283478494627E-01
      4.22283478494627E-01   4.22283478494627E-01   0.00000000000000E+00   0.00000000000000E+00   4.11945971504456E-14
      1.10914768544213E-20   4.11946082419224E-14   7.30531236507335E-17   0.00000000000000E+00   0.00000000000000E+00
      0.00000000000000E+00   0.00000000000000E+00  -4.08544264933524E-14  -3.40181748569980E-16  -4.11946082419224E-14
     -7.30531236507334E-17
      4.35126406413412E-01
      4.35126406413412E-01   4.35126406413412E-01   0.00000000000000E+00   0.00000000000000E+00   4.17860964963968E-14
      8.32563940119972E-21   4.17861048220362E-14   7.31854422915267E-17   0.00000000000000E+00   0.00000000000000E+00
      0.00000000000000E+00   0.00000000000000E+00  -4.14415428823433E-14  -3.44561939692989E-16  -4.17861048220363E-14
     -7.31854422915267E-17
      4.47113139137612E-01
      4.47113139137612E-01   4.47113139137612E-01   0.00000000000000E+00   0.00000000000000E+00   4.23344424550603E-14
      8.31986174512765E-21   4.23344507749220E-14   7.33101584190299E-17   0.00000000000000E+00   0.00000000000000E+00
      0.00000000000000E+00   0.00000000000000E+00  -4.19859007034042E-14  -3.48550071517908E-16  -4.23344507749221E-14
     -7.33101584190299E-17
      4.58300756346866E-01
      4.58300756346866E-01   4.58300756346866E-01   0.00000000000000E+00   0.00000000000000E+00   4.28427320272474E-14
      7.32325555919098E-21   4.28427393505030E-14   7.34276174595427E-17   0.00000000000000E+00   0.00000000000000E+00
      0.00000000000000E+00   0.00000000000000E+00  -4.24905508324574E-14  -3.52188518045608E-16  -4.28427393505030E-14
     -7.34276174595428E-17
      4.68891700638292E-01
      4.68891700638292E-01   4.68891700638292E-01   0.00000000000000E+00   0.00000000000000E+00   4.33218187332929E-14
      7.40862660802485E-21   4.33218261419195E-14   7.35397490511133E-17   0.00000000000000E+00   0.00000000000000E+00
      0.00000000000000E+00   0.00000000000000E+00  -4.29662609270341E-14  -3.55565214885390E-16  -4.33218261419195E-14
     -7.35397490511135E-17
      4.78917794567509E-01
      4.78917794567509E-01   4.78917794567509E-01   0.00000000000000E+00   0.00000000000000E+00   4.37725184597116E-14
      8.34604519995881E-21   4.37725268057568E-14   7.36467369884621E-17   0.00000000000000E+00   0.00000000000000E+00
      0.00000000000000E+00   0.00000000000000E+00  -4.34138220224008E-14  -3.58704783355911E-16  -4.37725268057567E-14
     -7.36467369884622E-17
      4.97900532406826E-01
      4.97900532406826E-01   4.97900532406826E-01   0.00000000000000E+00   0.00000000000000E+00   4.46191375013399E-14
      8.27454535543082E-21   4.46191457758853E-14   7.38515196343113E-17   0.00000000000000E+00   0.00000000000000E+00
      0.00000000000000E+00   0.00000000000000E+00  -4.42546426941750E-14  -3.64503081710304E-16  -4.46191457758853E-14
     -7.38515196343112E-17
      5.13086722678280E-01
      5.13086722678280E-01   5.13086722678280E-01   0.00000000000000E+00   0.00000000000000E+00   4.52903071846547E-14
      8.82346624738990E-21   4.52903160081210E-14   7.40174258933396E-17   0.00000000000000E+00   0.00000000000000E+00
      0.00000000000000E+00   0.00000000000000E+00  -4.49213013467185E-14  -3.69014661402350E-16  -4.52903160081209E-14
     -7.40174258933395E-17
      5.27058017728018E-01
      5.27058017728018E-01   5.27058017728018E-01   0.00000000000000E+00   0.00000000000000E+00   4.59029120390167E-14
      2.35165246278020E-20   4.59029355555414E-14   7.41716835800986E-17   0.00000000000000E+00   0.00000000000000E+00
      0.00000000000000E+00   0.00000000000000E+00  -4.55298516061923E-14  -3.73083949349096E-16  -4.59029355555414E-14
     -7.41716835800984E-17
      5.40097893107773E-01
      5.40097893107773E-01   5.40097893107773E-01   0.00000000000000E+00   0.00000000000000E+00   4.64706039974152E-14
      1.61344606654115E-20   4.64706201318759E-14   7.43170545990516E-17   0.00000000000000E+00   0.00000000000000E+00
      0.00000000000000E+00   0.00000000000000E+00  -4.60938400403034E-14  -3.76780091572568E-16  -4.64706201318760E-14
     -7.43170545990517E-17
      5.52268443462211E-01
      5.52268443462211E-01   5.52268443462211E-01   0.00000000000000E+00   0.00000000000000E+00   4.69968228405478E-14
      8.33985214272317E-21   4.69968311803999E-14   7.44539457140808E-17   0.00000000000000E+00   0.00000000000000E+00
      0.00000000000000E+00   0.00000000000000E+00  -4.66166721675089E-14  -3.80159012891064E-16  -4.69968311803999E-14
     -7.44539457140808E-17
      5.63627623793020E-01
      5.63627623793020E-01   5.63627623793020E-01   0.00000000000000E+00   0.00000000000000E+00   4.74838361344135E-14
      8.27912106382635E-21   4.74838444135345E-14   7.45827615480628E-17   0.00000000000000E+00   0.00000000000000E+00
      0.00000000000000E+00   0.00000000000000E+00  -4.71005857019731E-14  -3.83258711561394E-16  -4.74838444135345E-14
     -7.45827615480626E-17
      5.74380981172853E-01
      5.74380981172853E-01   5.74380981172853E-01   0.00000000000000E+00   0.00000000000000E+00   4.79440520144703E-14
      7.33316123278691E-21   4.79440593476315E-14   7.47056382401543E-17   0.00000000000000E+00   0.00000000000000E+00
      0.00000000000000E+00   0.00000000000000E+00  -4.75579222175492E-14  -3.86137130082203E-16  -4.79440593476314E-14
     -7.47056382401544E-17
      5.84560826159094E-01
      5.84560826159094E-01   5.84560826159094E-01   0.00000000000000E+00   0.00000000000000E+00   4.83763329811212E-14
      8.34605218370425E-21   4.83763413271733E-14   7.48227926720320E-17   0.00000000000000E+00   0.00000000000000E+00
      0.00000000000000E+00   0.00000000000000E+00  -4.79875274986248E-14  -3.88813828548518E-16  -4.83763413271733E-14
     -7.48227926720322E-17
      5.94197746079403E-01
      5.94197746079403E-01   5.94197746079403E-01   0.00000000000000E+00   0.00000000000000E+00   4.87834088344241E-14
      8.34603421688823E-21   4.87834171804583E-14   7.49344410129674E-17   0.00000000000000E+00   0.00000000000000E+00
      0.00000000000000E+00   0.00000000000000E+00  -4.83921160404221E-14  -3.91301140036244E-16  -4.87834171804583E-14
     -7.49344410129675E-17
      6.12443647795187E-01
      6.12443647795187E-01   6.12443647795187E-01   0.00000000000000E+00   0.00000000000000E+00   4.95481571757520E-14
      8.30810496084184E-21   4.95481654838570E-14   7.51477965576637E-17   0.00000000000000E+00   0.00000000000000E+00
      0.00000000000000E+00   0.00000000000000E+00  -4.91522794185755E-14  -3.95886065281514E-16  -4.95481654838570E-14
     -7.51477965576637E-17
      6.28986598684165E-01
      6.28986598684165E-01   6.28986598684165E-01   0.00000000000000E+00   0.00000000000000E+00   5.02350739030819E-14
      8.32240270931030E-21   5.02350822254846E-14   7.53434532571512E-17   0.00000000000000E+00   0.00000000000000E+00
      0.00000000000000E+00   0.00000000000000E+00  -4.98351831609937E-14  -3.99899064490878E-16  -5.02350822254846E-14
     -7.53434532571511E-17
      6.44206113502024E-01
      6.44206113502024E-01   6.44206113502024E-01   0.00000000000000E+00   0.00000000000000E+00   5.08617088821421E-14
      8.61575614925024E-21   5.08617174978982E-14   7.55253060922352E-17   0.00000000000000E+00   0.00000000000000E+00
      0.00000000000000E+00   0.00000000000000E+00  -5.04582498484975E-14  -4.03467649400631E-16  -5.08617174978982E-14
     -7.55253060922351E-17
      6.58208067134455E-01
      6.58208067134455E-01   6.58208067134455E-01   0.00000000000000E+00   0.00000000000000E+00   5.14337115094262E-14
      2.39017586148349E-20   5.14337354111848E-14   7.56941666600501E-17   0.00000000000000E+00   0.00000000000000E+00
      0.00000000000000E+00   0.00000000000000E+00  -5.10270756723096E-14  -4.06659738875308E-16  -5.14337354111849E-14
     -7.56941666600500E-17
      6.71276557191390E-01
      6.71276557191390E-01   6.71276557191390E-01   0.00000000000000E+00   0.00000000000000E+00   5.19636943865199E-14
      8.34015702764618E-21   5.19637027266769E-14   7.58531081866882E-17   0.00000000000000E+00   0.00000000000000E+00
      0.00000000000000E+00   0.00000000000000E+00  -5.15541856574648E-14  -4.09517069212160E-16  -5.19637027266769E-14
     -7.58531081866884E-17
      6.83473814577863E-01
      6.83473814577863E-01   6.83473814577863E-01   0.00000000000000E+00   0.00000000000000E+00   5.24551014080995E-14
      8.33284987679162E-21   5.24551097409494E-14   7.60026137826755E-17   0.00000000000000E+00   0.00000000000000E+00
      0.00000000000000E+00   0.00000000000000E+00  -5.20429913898280E-14  -4.12118351121500E-16  -5.24551097409495E-14
     -7.60026137826756E-17
      6.94857921471904E-01
      6.94857921471904E-01   6.94857921471904E-01   0.00000000000000E+00   0.00000000000000E+00   5.29100681999148E-14
      8.26168281020342E-21   5.29100764615976E-14   7.61431583713700E-17   0.00000000000000E+00   0.00000000000000E+00
      0.00000000000000E+00   0.00000000000000E+00  -5.24955994941359E-14  -4.14476967461612E-16  -5.29100764615975E-14
     -7.61431583713700E-17
      7.05634875998264E-01
      7.05634875998264E-01   7.05634875998264E-01   0.00000000000000E+00   0.00000000000000E+00   5.33390970882273E-14
      8.28169203582857E-21   5.33391053699193E-14   7.62770984224845E-17   0.00000000000000E+00   0.00000000000000E+00
      0.00000000000000E+00   0.00000000000000E+00  -5.29224562528868E-14  -4.16649117032467E-16  -5.33391053699193E-14
     -7.62770984224846E-17
      7.15837059616550E-01
      7.15837059616550E-01   7.15837059616550E-01   0.00000000000000E+00   0.00000000000000E+00   5.37426228657278E-14
      8.34220414410243E-21   5.37426312079319E-14   7.64046904105590E-17   0.00000000000000E+00   0.00000000000000E+00
      0.00000000000000E+00   0.00000000000000E+00  -5.33239792798965E-14  -4.18651928035385E-16  -5.37426312079319E-14
     -7.64046904105591E-17
      7.25495126775195E-01
      7.25495126775195E-01   7.25495126775195E-01   0.00000000000000E+00   0.00000000000000E+00   5.41225897034993E-14
      8.34603931558241E-21   5.41225980495386E-14   7.65261875656625E-17   0.00000000000000E+00   0.00000000000000E+00
      0.00000000000000E+00   0.00000000000000E+00  -5.37020971886639E-14  -4.20500860874747E-16  -5.41225980495386E-14
     -7.65261875656627E-17
      7.43781067262229E-01
      7.43781067262229E-01   7.43781067262229E-01   0.00000000000000E+00   0.00000000000000E+00   5.48366653598915E-14
      8.23882627663376E-21   5.48366735987178E-14   7.67581046692504E-17   0.00000000000000E+00   0.00000000000000E+00
      0.00000000000000E+00   0.00000000000000E+00  -5.44127935855051E-14  -4.23880013212766E-16  -5.48366735987179E-14
     -7.67581046692504E-17
      7.60360319970473E-01
      7.60360319970473E-01   7.60360319970473E-01   0.00000000000000E+00   0.00000000000000E+00   5.54780648186645E-14
      8.33126560654303E-21   5.54780731499301E-14   7.69704936487442E-17   0.00000000000000E+00   0.00000000000000E+00
      0.00000000000000E+00   0.00000000000000E+00  -5.50512605741880E-14  -4.26812575742083E-16  -5.54780731499301E-14
     -7.69704936487443E-17
      7.75613232462058E-01
      7.75613232462058E-01   7.75613232462058E-01   0.00000000000000E+00   0.00000000000000E+00   5.60630475205443E-14
      8.40212882827511E-21   5.60630559226731E-14   7.71676587140715E-17   0.00000000000000E+00   0.00000000000000E+00
      0.00000000000000E+00   0.00000000000000E+00  -5.56336494514808E-14  -4.29406471192260E-16  -5.60630559226731E-14
     -7.71676587140716E-17
      7.89645911954316E-01
      7.89645911954316E-01   7.89645911954316E-01   0.00000000000000E+00   0.00000000000000E+00   5.65971688965728E-14
      2.38284386726480E-20   5.65971927250115E-14   7.73505375043027E-17   0.00000000000000E+00   0.00000000000000E+00
      0.00000000000000E+00   0.00000000000000E+00  -5.61654672208509E-14  -4.31725504160610E-16  -5.65971927250115E-14
     -7.73505375043027E-17
      8.02743079480423E-01
      8.02743079480423E-01   8.02743079480423E-01   0.00000000000000E+00   0.00000000000000E+00   5.70920307270631E-14
      8.34441587972209E-21   5.70920390714790E-14   7.75225029631866E-17   0.00000000000000E+00   0.00000000000000E+00
      0.00000000000000E+00   0.00000000000000E+00  -5.66582460245085E-14  -4.33793046970632E-16  -5.70920390714791E-14
     -7.75225029631867E-17
      8.14792473604442E-01
      8.14792473604442E-01   8.14792473604442E-01   0.00000000000000E+00   0.00000000000000E+00   5.75443117873228E-14
      8.34590891116499E-21   5.75443201332317E-14   7.76817959329024E-17   0.00000000000000E+00   0.00000000000000E+00
      0.00000000000000E+00   0.00000000000000E+00  -5.71086641659368E-14  -4.35655967294863E-16  -5.75443201332317E-14
     -7.76817959329025E-17
      8.26038574786859E-01
      8.26038574786859E-01   8.26038574786859E-01   0.00000000000000E+00   0.00000000000000E+00   5.79638122130347E-14
      8.29756016482398E-21   5.79638205105949E-14   7.78314028100096E-17   0.00000000000000E+00   0.00000000000000E+00
      0.00000000000000E+00   0.00000000000000E+00  -5.75264691080861E-14  -4.37351402508771E-16  -5.79638205105949E-14
     -7.78314028100095E-17
      8.36684883906215E-01
      8.36684883906215E-01   8.36684883906215E-01   0.00000000000000E+00   0.00000000000000E+00   5.83586493210433E-14
      8.32942212299404E-21   5.83586576504654E-14   7.79738573813816E-17   0.00000000000000E+00   0.00000000000000E+00
      0.00000000000000E+00   0.00000000000000E+00  -5.79197371481182E-14  -4.38920502347203E-16  -5.83586576504654E-14
     -7.79738573813815E-17
      8.46763389872538E-01
      8.46763389872538E-01   8.46763389872538E-01   0.00000000000000E+00   0.00000000000000E+00   5.87304398022272E-14
      8.34496396333577E-21   5.87304481471911E-14   7.81094521435321E-17   0.00000000000000E+00   0.00000000000000E+00
      0.00000000000000E+00   0.00000000000000E+00  -5.82900724125267E-14  -4.40375734664449E-16  -5.87304481471912E-14
     -7.81094521435322E-17
      8.56304375520657E-01
      8.56304375520657E-01   8.56304375520657E-01   0.00000000000000E+00   0.00000000000000E+00   5.90806127259342E-14
      8.34604442358054E-21   5.90806210719786E-14   7.82384737038422E-17   0.00000000000000E+00   0.00000000000000E+00
      0.00000000000000E+00   0.00000000000000E+00  -5.86388930220970E-14  -4.41728049881660E-16  -5.90806210719787E-14
     -7.82384737038421E-17
      8.74368641681096E-01
      8.74368641681096E-01   8.74368641681096E-01   0.00000000000000E+00   0.00000000000000E+00   5.97385021355013E-14
      1.88033705324521E-20   5.97385209388719E-14   7.84845000107801E-17   0.00000000000000E+00   0.00000000000000E+00
      0.00000000000000E+00   0.00000000000000E+00  -5.92942837877139E-14  -4.44237151158041E-16  -5.97385209388719E-14
     -7.84845000107802E-17
      8.90987766548699E-01
      8.90987766548699E-01   8.90987766548699E-01   0.00000000000000E+00   0.00000000000000E+00   6.03386480230396E-14
      8.30979413768126E-21   6.03386563328338E-14   7.87128498822714E-17   0.00000000000000E+00   0.00000000000000E+00
      0.00000000000000E+00   0.00000000000000E+00  -5.98921948251987E-14  -4.46461507635166E-16  -6.03386563328339E-14
     -7.87128498822713E-17
      9.06277361426895E-01