DF-ISE text

Info {
  version   = 1.0
  type      = xyplot
  datasets  = [
    "time"
    "top OuterVoltage" "top InnerVoltage" "top QuasiFermiPotential" "top DisplacementCurrent" "top eCurrent"
    "top hCurrent" "top TotalCurrent" "top Charge" "bottom OuterVoltage" "bottom InnerVoltage"
    "bottom QuasiFermiPotential" "bottom DisplacementCurrent" "bottom eCurrent" "bottom hCurrent" "bottom TotalCurrent"
    "bottom Charge" ]
  functions = [
    Time
    OuterVoltage InnerVoltage QuasiFermiPotential DisplacementCurrent eCurrent
    hCurrent TotalCurrent Charge OuterVoltage InnerVoltage
    QuasiFermiPotential DisplacementCurrent eCurrent hCurrent TotalCurrent
    Charge ]
}

Data {
      0.00000000000000E+00
      0.00000000000000E+00   0.00000000000000E+00   0.00000000000000E+00   0.00000000000000E+00   1.69858979220586E-21
      3.51049903662116E-30   1.69858979571636E-21   3.69584431758997E-17   0.00000000000000E+00   0.00000000000000E+00
      0.00000000000000E+00   0.00000000000000E+00  -1.69858979263507E-21  -3.08128694082135E-30  -1.69858979571636E-21
     -3.69584431758997E-17
      0.00000000000000E+00
      0.00000000000000E+00   0.00000000000000E+00   0.00000000000000E+00   0.00000000000000E+00   4.94969573894572E-21
      3.91285552682143E-31   4.94969573933701E-21   3.69594192171843E-17   0.00000000000000E+00   0.00000000000000E+00
      0.00000000000000E+00   0.00000000000000E+00  -4.94969573798601E-21  -1.35100623238881E-30  -4.94969573933701E-21
     -3.69594192171843E-17
      1.00000000000000E-02
      1.00000000000000E-02   1.00000000000000E-02   0.00000000000000E+00   0.00000000000000E+00   5.68240999995403E-15
      5.29965185858867E-19   5.68293996513989E-15   3.70531737798698E-17   0.00000000000000E+00   0.00000000000000E+00
      0.00000000000000E+00   0.00000000000000E+00  -5.65232486487433E-15  -3.06151002655469E-17  -5.68293996513988E-15
     -3.70531737798698E-17
      2.89333333333333E-02
      2.89333333333333E-02   2.89333333333333E-02   0.00000000000000E+00   0.00000000000000E+00   1.25473354108477E-14
      1.05944431510364E-18   1.25483948551628E-14   3.72339010952259E-17   0.00000000000000E+00   0.00000000000000E+00
      0.00000000000000E+00   0.00000000000000E+00  -1.24723885060976E-14  -7.60063490652461E-17  -1.25483948551629E-14
     -3.72339010952259E-17
      6.42755555555556E-02
      6.42755555555556E-02   6.42755555555556E-02   0.00000000000000E+00   0.00000000000000E+00   1.86107559031251E-14
      1.35741381767168E-18   1.86121133169428E-14   3.75825072220846E-17   0.00000000000000E+00   0.00000000000000E+00
      0.00000000000000E+00   0.00000000000000E+00  -1.84779817945080E-14  -1.34131522434840E-16  -1.86121133169428E-14
     -3.75825072220845E-17
      1.14275555555556E-01
      1.14275555555556E-01   1.14275555555556E-01   0.00000000000000E+00   0.00000000000000E+00   2.23870881385539E-14
      1.45435882567979E-18   2.23885424973795E-14   3.81005472442093E-17   0.00000000000000E+00   0.00000000000000E+00
      0.00000000000000E+00   0.00000000000000E+00  -2.21993211564201E-14  -1.89221340959400E-16  -2.23885424973795E-14
     -3.81005472442094E-17
      1.64275555555556E-01
      1.64275555555556E-01   1.64275555555556E-01   0.00000000000000E+00   0.00000000000000E+00   2.50353708507172E-14
      1.70021703803161E-18   2.50370710677552E-14   3.86473258289310E-17   0.00000000000000E+00   0.00000000000000E+00
      0.00000000000000E+00   0.00000000000000E+00  -2.48057272283620E-14  -2.31343839393213E-16  -2.50370710677552E-14
     -3.86473258289311E-17
      1.89275555555556E-01
      1.89275555555556E-01   1.89275555555556E-01   0.00000000000000E+00   0.00000000000000E+00   2.62791929260319E-14
      1.24383113439462E-18   2.62804367571663E-14   3.89313287970644E-17   0.00000000000000E+00   0.00000000000000E+00
      0.00000000000000E+00   0.00000000000000E+00  -2.60313613388175E-14  -2.49075418348883E-16  -2.62804367571663E-14
     -3.89313287970644E-17
      2.35275555555556E-01
      2.35275555555556E-01   2.35275555555556E-01   0.00000000000000E+00   0.00000000000000E+00   2.85210894531636E-14
      1.61340114523745E-18   2.85227028543088E-14   3.94720724462629E-17   0.00000000000000E+00   0.00000000000000E+00
      0.00000000000000E+00   0.00000000000000E+00  -2.82432718416110E-14  -2.79431012697804E-16  -2.85227028543088E-14
     -3.94720724462629E-17
      2.85275555555556E-01
      2.85275555555556E-01   2.85275555555556E-01   0.00000000000000E+00   0.00000000000000E+00   3.09081757508723E-14
      1.50382428390904E-18   3.09096795751562E-14   4.00860686969960E-17   0.00000000000000E+00   0.00000000000000E+00
      0.00000000000000E+00   0.00000000000000E+00  -3.06019235094416E-14  -3.07756065714588E-16  -3.09096795751562E-14
     -4.00860686969959E-17
      3.35275555555556E-01
      3.35275555555556E-01   3.35275555555556E-01   0.00000000000000E+00   0.00000000000000E+00   3.32452125607537E-14
      1.47486203585457E-18   3.32466874227896E-14   4.07267574295089E-17   0.00000000000000E+00   0.00000000000000E+00
      0.00000000000000E+00   0.00000000000000E+00  -3.29140169921934E-14  -3.32670430596265E-16  -3.32466874227896E-14
     -4.07267574295090E-17
      3.85275555555556E-01
      3.85275555555556E-01   3.85275555555556E-01   0.00000000000000E+00   0.00000000000000E+00   3.55309026735753E-14
      1.41948350896496E-18   3.55323221570842E-14   4.13934741209851E-17   0.00000000000000E+00   0.00000000000000E+00
      0.00000000000000E+00   0.00000000000000E+00  -3.51776127388019E-14  -3.54709418282358E-16  -3.55323221570842E-14
     -4.13934741209851E-17
      4.35275555555556E-01
      4.35275555555556E-01   4.35275555555556E-01   0.00000000000000E+00   0.00000000000000E+00   3.77643044486470E-14
      1.40269916691506E-18   3.77657071478139E-14   4.20855467484295E-17   0.00000000000000E+00   0.00000000000000E+00
      0.00000000000000E+00   0.00000000000000E+00  -3.73913776492408E-14  -3.74329498573137E-16  -3.77657071478140E-14
     -4.20855467484295E-17
      4.85275555555556E-01
      4.85275555555556E-01   4.85275555555556E-01   0.00000000000000E+00   0.00000000000000E+00   3.99451499976536E-14
      1.40219261573169E-18   3.99465521902693E-14   4.28023009251719E-17   0.00000000000000E+00   0.00000000000000E+00
      0.00000000000000E+00   0.00000000000000E+00  -3.95547462250682E-14  -3.91805965201082E-16  -3.99465521902693E-14
     -4.28023009251720E-17
      5.35275555555556E-01
      5.35275555555556E-01   5.35275555555556E-01   0.00000000000000E+00   0.00000000000000E+00   4.20737735226152E-14
      1.40224491423504E-18   4.20751757675295E-14   4.35430631836918E-17   0.00000000000000E+00   0.00000000000000E+00
      0.00000000000000E+00   0.00000000000000E+00  -4.16676712887553E-14  -4.07504478774052E-16  -4.20751757675294E-14
     -4.35430631836918E-17
      5.85275555555556E-01
      5.85275555555556E-01   5.85275555555556E-01   0.00000000000000E+00   0.00000000000000E+00   4.41510164552772E-14
      1.38162974166232E-18   4.41523980850189E-14   4.43071631526206E-17   0.00000000000000E+00   0.00000000000000E+00
      0.00000000000000E+00   0.00000000000000E+00  -4.37305735901596E-14  -4.21824494859192E-16  -4.41523980850188E-14
     -4.43071631526206E-17
      6.35275555555556E-01
      6.35275555555556E-01   6.35275555555556E-01   0.00000000000000E+00   0.00000000000000E+00   4.61778398353494E-14
      1.37226690524221E-18   4.61792121022546E-14   4.50939350564522E-17   0.00000000000000E+00   0.00000000000000E+00
      0.00000000000000E+00   0.00000000000000E+00  -4.57441076098695E-14  -4.35104492385017E-16  -4.61792121022545E-14
     -4.50939350564522E-17
      6.85275555555556E-01
      6.85275555555556E-01   6.85275555555556E-01   0.00000000000000E+00   0.00000000000000E+00   4.81552860379013E-14
      1.40147014323856E-18   4.81566875080446E-14   4.59027187865495E-17   0.00000000000000E+00   0.00000000000000E+00
      0.00000000000000E+00   0.00000000000000E+00  -4.77092003181723E-14  -4.47487189872252E-16  -4.81566875080446E-14
     -4.59027187865494E-17
      7.35275555555556E-01
      7.35275555555556E-01   7.35275555555556E-01   0.00000000000000E+00   0.00000000000000E+00   5.00843191686340E-14
      1.40971219362490E-18   5.00857288808276E-14   4.67328606897021E-17   0.00000000000000E+00   0.00000000000000E+00
      0.00000000000000E+00   0.00000000000000E+00  -4.96268475787569E-14  -4.58881302070756E-16  -5.00857288808276E-14
     -4.67328606897022E-17
      7.85275555555556E-01
      7.85275555555556E-01   7.85275555555556E-01   0.00000000000000E+00   0.00000000000000E+00   5.19660304131179E-14
      1.40465910134554E-18   5.19674350722193E-14   4.75837141616267E-17   0.00000000000000E+00   0.00000000000000E+00
      0.00000000000000E+00   0.00000000000000E+00  -5.14982143555471E-14  -4.69220716672204E-16  -5.19674350722193E-14
     -4.75837141616267E-17
      8.35275555555556E-01
      8.35275555555556E-01   8.35275555555556E-01   0.00000000000000E+00   0.00000000000000E+00   5.38014898238679E-14
      1.40140847939814E-18   5.38028912323473E-14   4.84546400990347E-17   0.00000000000000E+00   0.00000000000000E+00
      0.00000000000000E+00   0.00000000000000E+00  -5.33243962706768E-14  -4.78494961670559E-16  -5.38028912323473E-14
     -4.84546400990347E-17
      8.85275555555556E-01
      8.85275555555556E-01   8.85275555555556E-01   0.00000000000000E+00   0.00000000000000E+00   5.55921572191021E-14
      1.40195621136861E-18   5.55935591753135E-14   4.93450072443186E-17   0.00000000000000E+00   0.00000000000000E+00
      0.00000000000000E+00   0.00000000000000E+00  -5.51067941731890E-14  -4.86765002124465E-16  -5.55935591753135E-14
     -4.93450072443186E-17
      9.35275555555556E-01
      9.35275555555556E-01   9.35275555555556E-01   0.00000000000000E+00   0.00000000000000E+00   5.73392053596554E-14
      1.40217940534365E-18   5.73406075390607E-14   5.02541924457437E-17   0.00000000000000E+00   0.00000000000000E+00
      0.00000000000000E+00   0.00000000000000E+00  -5.68464493809611E-14  -4.94158158099632E-16  -5.73406075390608E-14
     -5.02541924457436E-17
      9.85275555555556E-01
      9.85275555555556E-01   9.85275555555556E-01   0.00000000000000E+00   0.00000000000000E+00   5.90442312711298E-14
      1.40241182580631E-18   5.90456336829556E-14   5.11815808500142E-17   0.00000000000000E+00   0.00000000000000E+00
      0.00000000000000E+00   0.00000000000000E+00  -5.85447887669807E-14  -5.00844915975009E-16  -5.90456336829557E-14
     -5.11815808500140E-17
      1.00000000000000E+00
      1.00000000000000E+00   1.00000000000000E+00   0.00000000000000E+00   0.00000000000000E+00   5.95384919648015E-14
      1.40357036811393E-18   5.95398955351696E-14   5.14580674529010E-17   0.00000000000000E+00   0.00000000000000E+00
      0.00000000000000E+00   0.00000000000000E+00  -5.90371890314191E-14  -5.02706503750438E-16  -5.95398955351696E-14
     -5.14580674529010E-17
}
