DF-ISE text

Info {
  version   = 1.0
  type      = xyplot
  datasets  = [
    "time"
    "top OuterVoltage" "top InnerVoltage" "top QuasiFermiPotential" "top DisplacementCurrent" "top eCurrent"
    "top hCurrent" "top TotalCurrent" "top Charge" "bottom OuterVoltage" "bottom InnerVoltage"
    "bottom QuasiFermiPotential" "bottom DisplacementCurrent" "bottom eCurrent" "bottom hCurrent" "bottom TotalCurrent"
    "bottom Charge" ]
  functions = [
    Time
    OuterVoltage InnerVoltage QuasiFermiPotential DisplacementCurrent eCurrent
    hCurrent TotalCurrent Charge OuterVoltage InnerVoltage
    QuasiFermiPotential DisplacementCurrent eCurrent hCurrent TotalCurrent
    Charge ]
}

Data {
      0.00000000000000E+00
      0.00000000000000E+00   0.00000000000000E+00   0.00000000000000E+00   0.00000000000000E+00   1.32231402370192E-21
      2.24176838810735E-30   1.32231402594369E-21   4.43166378777234E-17   0.00000000000000E+00   0.00000000000000E+00
      0.00000000000000E+00   0.00000000000000E+00  -1.32231402376894E-21  -2.17474513560707E-30  -1.32231402594369E-21
     -4.43166378777234E-17
      0.00000000000000E+00
      0.00000000000000E+00   0.00000000000000E+00   0.00000000000000E+00   0.00000000000000E+00  -7.86264825025670E-21
      1.19776432075503E-31  -7.86264825013693E-21   4.43172575838475E-17   0.00000000000000E+00   0.00000000000000E+00
      0.00000000000000E+00   0.00000000000000E+00   7.86264825017547E-21  -3.85384055677981E-32   7.86264825013693E-21
     -4.43172575838475E-17
      1.00000000000000E-02
      1.00000000000000E-02   1.00000000000000E-02   0.00000000000000E+00   0.00000000000000E+00   5.91748681521216E-15
      2.39587906625242E-20   5.91751077400282E-15   4.44173186579029E-17   0.00000000000000E+00   0.00000000000000E+00
      0.00000000000000E+00   0.00000000000000E+00  -5.88788426746858E-15  -2.96265065342236E-17  -5.91751077400281E-15
     -4.44173186579029E-17
      2.89333333333333E-02
      2.89333333333333E-02   2.89333333333333E-02   0.00000000000000E+00   0.00000000000000E+00   1.30460250835612E-14
     -2.08884042748433E-19   1.30458161995184E-14   4.46100683100362E-17   0.00000000000000E+00   0.00000000000000E+00
      0.00000000000000E+00   0.00000000000000E+00  -1.29723070301976E-14  -7.35091693208718E-17  -1.30458161995184E-14
     -4.46100683100363E-17
      4.63520000000000E-02
      4.63520000000000E-02   4.63520000000000E-02   0.00000000000000E+00   0.00000000000000E+00   1.68679852683271E-14
      1.66915590202517E-19   1.68681521839173E-14   4.47911923833798E-17   0.00000000000000E+00   0.00000000000000E+00
      0.00000000000000E+00   0.00000000000000E+00  -1.67632324888965E-14  -1.04919695020852E-16  -1.68681521839173E-14
     -4.47911923833798E-17
      6.23771733333333E-02
      6.23771733333333E-02   6.23771733333333E-02   0.00000000000000E+00   0.00000000000000E+00   1.91254119561588E-14
      1.34164003267808E-20   1.91254253725591E-14   4.49610147900583E-17   0.00000000000000E+00   0.00000000000000E+00
      0.00000000000000E+00   0.00000000000000E+00  -1.89974045149620E-14  -1.28020857597142E-16  -1.91254253725592E-14
     -4.49610147900583E-17
      7.71203328000000E-02
      7.71203328000000E-02   7.71203328000000E-02   0.00000000000000E+00   0.00000000000000E+00   2.06126615968392E-14
      6.90225361934837E-20   2.06127306193754E-14   4.51199294539866E-17   0.00000000000000E+00   0.00000000000000E+00
      0.00000000000000E+00   0.00000000000000E+00  -2.04663308574156E-14  -1.46399761959699E-16  -2.06127306193753E-14
     -4.51199294539866E-17
      9.00943131306667E-02
      9.00943131306667E-02   9.00943131306667E-02   0.00000000000000E+00   0.00000000000000E+00   2.16493629533796E-14
      7.04327578594266E-20   2.16494333861375E-14   4.52618813382579E-17   0.00000000000000E+00   0.00000000000000E+00
      0.00000000000000E+00   0.00000000000000E+00  -2.14886587191909E-14  -1.60774666946553E-16  -2.16494333861375E-14
     -4.52618813382579E-17
      1.02203361439289E-01
      1.02203361439289E-01   1.02203361439289E-01   0.00000000000000E+00   0.00000000000000E+00   2.24780302790869E-14
      7.08453824551472E-20   2.24781011244693E-14   4.53961363559638E-17   0.00000000000000E+00   0.00000000000000E+00
      0.00000000000000E+00   0.00000000000000E+00  -2.23050314665421E-14  -1.73069657927248E-16  -2.24781011244694E-14
     -4.53961363559638E-17
      1.13505139860670E-01
      1.13505139860670E-01   1.13505139860670E-01   0.00000000000000E+00   0.00000000000000E+00   2.31754836465870E-14
      7.11756939671199E-20   2.31755548222810E-14   4.55229691174631E-17   0.00000000000000E+00   0.00000000000000E+00
      0.00000000000000E+00   0.00000000000000E+00  -2.29917845908251E-14  -1.83770231455923E-16  -2.31755548222810E-14
     -4.55229691174632E-17
      1.34601792913914E-01
      1.34601792913914E-01   1.34601792913914E-01   0.00000000000000E+00   0.00000000000000E+00   2.43651637022535E-14
      7.14554323329439E-20   2.43652351576858E-14   4.57636355747823E-17   0.00000000000000E+00   0.00000000000000E+00
      0.00000000000000E+00   0.00000000000000E+00  -2.41630579026243E-14  -2.02177255061485E-16  -2.43652351576858E-14
     -4.57636355747823E-17
      1.52041692771262E-01
      1.52041692771262E-01   1.52041692771262E-01   0.00000000000000E+00   0.00000000000000E+00   2.52892926104389E-14
      7.15365166303140E-20   2.52893641469555E-14   4.59663927158223E-17   0.00000000000000E+00   0.00000000000000E+00
      0.00000000000000E+00   0.00000000000000E+00  -2.50731917080798E-14  -2.16172438875730E-16  -2.52893641469556E-14
     -4.59663927158222E-17
      1.68086400640023E-01
      1.68086400640023E-01   1.68086400640023E-01   0.00000000000000E+00   0.00000000000000E+00   2.61152628219159E-14
      5.96661689104964E-20   2.61153224880848E-14   4.61559356261117E-17   0.00000000000000E+00   0.00000000000000E+00
      0.00000000000000E+00   0.00000000000000E+00  -2.58870771170322E-14  -2.28245371052628E-16  -2.61153224880848E-14
     -4.61559356261116E-17
      1.83061461317532E-01
      1.83061461317532E-01   1.83061461317532E-01   0.00000000000000E+00   0.00000000000000E+00   2.68737194475980E-14
      7.09018282524518E-20   2.68737903494263E-14   4.63354132227511E-17   0.00000000000000E+00   0.00000000000000E+00
      0.00000000000000E+00   0.00000000000000E+00  -2.66348438327029E-14  -2.38946516723361E-16  -2.68737903494263E-14
     -4.63354132227510E-17
      1.97038184616542E-01
      1.97038184616542E-01   1.97038184616542E-01   0.00000000000000E+00   0.00000000000000E+00   2.75741389976952E-14
     -1.56702557586012E-20   2.75741233274395E-14   4.65051417784405E-17   0.00000000000000E+00   0.00000000000000E+00
      0.00000000000000E+00   0.00000000000000E+00  -2.73257416125671E-14  -2.48381714872421E-16  -2.75741233274395E-14
     -4.65051417784404E-17
      2.10083126362284E-01
      2.10083126362284E-01   2.10083126362284E-01   0.00000000000000E+00   0.00000000000000E+00   2.82228355848895E-14
      2.57448170839858E-20   2.82228613297065E-14   4.66654663748567E-17   0.00000000000000E+00   0.00000000000000E+00
      0.00000000000000E+00   0.00000000000000E+00  -2.79659220015123E-14  -2.56939328194292E-16  -2.82228613297066E-14
     -4.66654663748567E-17
      2.22258405324976E-01
      2.22258405324976E-01   2.22258405324976E-01   0.00000000000000E+00   0.00000000000000E+00   2.88245571870035E-14
      7.70204155236948E-20   2.88246342074191E-14   4.68167518558187E-17   0.00000000000000E+00   0.00000000000000E+00
      0.00000000000000E+00   0.00000000000000E+00  -2.85599887128449E-14  -2.64645494574214E-16  -2.88246342074191E-14
     -4.68167518558187E-17
      2.33459661970653E-01
      2.33459661970653E-01   2.33459661970653E-01   0.00000000000000E+00   0.00000000000000E+00   2.93751340153636E-14
      7.15913132052296E-20   2.93752056066768E-14   4.69573282961164E-17   0.00000000000000E+00   0.00000000000000E+00
      0.00000000000000E+00   0.00000000000000E+00  -2.91037601022725E-14  -2.71445504404292E-16  -2.93752056066768E-14
     -4.69573282961164E-17
      2.54368674375917E-01
      2.54368674375917E-01   2.54368674375917E-01   0.00000000000000E+00   0.00000000000000E+00   3.03956587299547E-14
      7.16054228894163E-20   3.03957303353776E-14   4.72232721885677E-17   0.00000000000000E+00   0.00000000000000E+00
      0.00000000000000E+00   0.00000000000000E+00  -3.01121482538514E-14  -2.83582081526189E-16  -3.03957303353776E-14
     -4.72232721885677E-17
      2.73047392124619E-01
      2.73047392124619E-01   2.73047392124619E-01   0.00000000000000E+00   0.00000000000000E+00   3.12993836829285E-14
      7.13792211550948E-20   3.12994550621496E-14   4.74646918070620E-17   0.00000000000000E+00   0.00000000000000E+00
      0.00000000000000E+00   0.00000000000000E+00  -3.10056082103395E-14  -2.93846851810173E-16  -3.12994550621496E-14
     -4.74646918070620E-17
      2.90231812453425E-01
      2.90231812453425E-01   2.90231812453425E-01   0.00000000000000E+00   0.00000000000000E+00   3.21322713878423E-14
      3.99815760060916E-19   3.21326712036024E-14   4.76899544493803E-17   0.00000000000000E+00   0.00000000000000E+00
      0.00000000000000E+00   0.00000000000000E+00  -3.18294926408831E-14  -3.03178562719280E-16  -3.21326712036024E-14
     -4.76899544493804E-17
      3.06270604760311E-01
      3.06270604760311E-01   3.06270604760311E-01   0.00000000000000E+00   0.00000000000000E+00   3.28964497638760E-14
      7.05948459175399E-20   3.28965203587220E-14   4.79028922128499E-17   0.00000000000000E+00   0.00000000000000E+00
      0.00000000000000E+00   0.00000000000000E+00  -3.25856202081416E-14  -3.10900150580280E-16  -3.28965203587219E-14
     -4.79028922128498E-17
      3.21240144246738E-01
      3.21240144246738E-01   3.21240144246738E-01   0.00000000000000E+00   0.00000000000000E+00   3.35970136746858E-14
      6.95696669526492E-20   3.35970832443527E-14   4.81039501106797E-17   0.00000000000000E+00   0.00000000000000E+00
      0.00000000000000E+00   0.00000000000000E+00  -3.32789569149445E-14  -3.18126329408287E-16  -3.35970832443527E-14
     -4.81039501106797E-17
      3.35211714434069E-01
      3.35211714434069E-01   3.35211714434069E-01   0.00000000000000E+00   0.00000000000000E+00   3.42534797994914E-14
     -5.47497034499142E-21   3.42534743245210E-14   4.82935976317435E-17   0.00000000000000E+00   0.00000000000000E+00
      0.00000000000000E+00   0.00000000000000E+00  -3.39289109832307E-14  -3.24563341290265E-16  -3.42534743245210E-14
     -4.82935976317436E-17
      3.48251846608912E-01
      3.48251846608912E-01   3.48251846608912E-01   0.00000000000000E+00   0.00000000000000E+00   3.48625901570864E-14
      4.81239524444586E-20   3.48626382810389E-14   4.84723190824747E-17   0.00000000000000E+00   0.00000000000000E+00
      0.00000000000000E+00   0.00000000000000E+00  -3.45321450912596E-14  -3.30493189779384E-16  -3.48626382810389E-14
     -4.84723190824747E-17
      3.60248768209768E-01
      3.60248768209768E-01   3.60248768209768E-01   0.00000000000000E+00   0.00000000000000E+00   3.54196049954755E-14
      1.06437424219177E-20   3.54196156392179E-14   4.86381917102243E-17   0.00000000000000E+00   0.00000000000000E+00
      0.00000000000000E+00   0.00000000000000E+00  -3.50839131010405E-14  -3.35702538177451E-16  -3.54196156392180E-14
     -4.86381917102243E-17
      3.71285936082555E-01
      3.71285936082555E-01   3.71285936082555E-01   0.00000000000000E+00   0.00000000000000E+00   3.59293573749569E-14
      1.83772832898505E-18   3.59311951032859E-14   4.87920088999137E-17   0.00000000000000E+00   0.00000000000000E+00
      0.00000000000000E+00   0.00000000000000E+00  -3.55889631912491E-14  -3.42231912036902E-16  -3.59311951032860E-14
     -4.87920088999138E-17
      3.81734455002126E-01
      3.81734455002126E-01   3.81734455002126E-01   0.00000000000000E+00   0.00000000000000E+00   3.64093594732415E-14
      7.14738454915674E-20   3.64094309470870E-14   4.89386850602160E-17   0.00000000000000E+00   0.00000000000000E+00
      0.00000000000000E+00   0.00000000000000E+00  -3.60646450910402E-14  -3.44785856046762E-16  -3.64094309470869E-14
     -4.89386850602159E-17
      4.01238356985327E-01
      4.01238356985327E-01   4.01238356985327E-01   0.00000000000000E+00   0.00000000000000E+00   3.72990398669611E-14
      7.76640276691820E-20   3.72991175309887E-14   4.92152146153945E-17   0.00000000000000E+00   0.00000000000000E+00
      0.00000000000000E+00   0.00000000000000E+00  -3.69465317316744E-14  -3.52585799314304E-16  -3.72991175309887E-14
     -4.92152146153943E-17
      4.19181946809871E-01
      4.19181946809871E-01   4.19181946809871E-01   0.00000000000000E+00   0.00000000000000E+00   3.81101904479360E-14
      6.92320093682660E-20   3.81102596799454E-14   4.94727251679074E-17   0.00000000000000E+00   0.00000000000000E+00
      0.00000000000000E+00   0.00000000000000E+00  -3.77508299830450E-14  -3.59429696900433E-16  -3.81102596799455E-14
     -4.94727251679074E-17
      4.35450801584124E-01
      4.35450801584124E-01   4.35450801584124E-01   0.00000000000000E+00   0.00000000000000E+00   3.88425070413760E-14
      7.34490357376712E-20   3.88425804904117E-14   4.97087338623687E-17   0.00000000000000E+00   0.00000000000000E+00
      0.00000000000000E+00   0.00000000000000E+00  -3.84771833553550E-14  -3.65397135056776E-16  -3.88425804904118E-14
     -4.97087338623687E-17
      4.50635066040094E-01
      4.50635066040094E-01   4.50635066040094E-01   0.00000000000000E+00   0.00000000000000E+00   3.95118760166064E-14
      7.33871399894145E-20   3.95119494037464E-14   4.99311517547615E-17   0.00000000000000E+00   0.00000000000000E+00
      0.00000000000000E+00   0.00000000000000E+00  -3.91411884459552E-14  -3.70760957791251E-16  -3.95119494037464E-14
     -4.99311517547613E-17
      4.64807046199000E-01
      4.64807046199000E-01   4.64807046199000E-01   0.00000000000000E+00   0.00000000000000E+00   4.01406423179074E-14
      2.39471556169637E-21   4.01406447126229E-14   5.01405848186479E-17   0.00000000000000E+00   0.00000000000000E+00
      0.00000000000000E+00   0.00000000000000E+00  -3.97651100270006E-14  -3.75534685622305E-16  -4.01406447126229E-14
     -5.01405848186479E-17
      4.78034227680645E-01
      4.78034227680645E-01   4.78034227680645E-01   0.00000000000000E+00   0.00000000000000E+00   4.07208191123101E-14
      1.33997449311901E-20   4.07208325120550E-14   5.03376419144981E-17   0.00000000000000E+00   0.00000000000000E+00
      0.00000000000000E+00   0.00000000000000E+00  -4.03409019325920E-14  -3.79930579463048E-16  -4.07208325120550E-14
     -5.03376419144981E-17
      4.90379597063513E-01
      4.90379597063513E-01   4.90379597063513E-01   0.00000000000000E+00   0.00000000000000E+00   4.12589069390037E-14
      7.15634888597580E-20   4.12589785024926E-14   5.05229281252907E-17   0.00000000000000E+00   0.00000000000000E+00
      0.00000000000000E+00   0.00000000000000E+00  -4.08750070831157E-14  -3.83971419376840E-16  -4.12589785024925E-14
     -5.05229281252906E-17
      5.13095076727992E-01
      5.13095076727992E-01   5.13095076727992E-01   0.00000000000000E+00   0.00000000000000E+00   4.22402535592439E-14
      7.15842182631352E-20   4.22403251434621E-14   5.08672542172758E-17   0.00000000000000E+00   0.00000000000000E+00
      0.00000000000000E+00   0.00000000000000E+00  -4.18492707421805E-14  -3.91054401281683E-16  -4.22403251434622E-14
     -5.08672542172757E-17
      5.30661714335188E-01
      5.30661714335188E-01   5.30661714335188E-01   0.00000000000000E+00   0.00000000000000E+00   4.29915372594181E-14
      7.03854533832463E-20   4.29916076448714E-14   5.11365082217750E-17   0.00000000000000E+00   0.00000000000000E+00
      0.00000000000000E+00   0.00000000000000E+00  -4.25952761284290E-14  -3.96331516442444E-16  -4.29916076448714E-14
     -5.11365082217752E-17
      5.46823020933809E-01
      5.46823020933809E-01   5.46823020933809E-01   0.00000000000000E+00   0.00000000000000E+00   4.36751631964607E-14
      7.79683112108988E-20   4.36752411647719E-14   5.13864766990563E-17   0.00000000000000E+00   0.00000000000000E+00
      0.00000000000000E+00   0.00000000000000E+00  -4.32741834457919E-14  -4.01057718980107E-16  -4.36752411647720E-14
     -5.13864766990562E-17
      5.61906907092522E-01
      5.61906907092522E-01   5.61906907092522E-01   0.00000000000000E+00   0.00000000000000E+00   4.43147989071396E-14
      7.67007761388850E-20   4.43148756079157E-14   5.16217028148786E-17   0.00000000000000E+00   0.00000000000000E+00
      0.00000000000000E+00   0.00000000000000E+00  -4.39095238759837E-14  -4.05351731932034E-16  -4.43148756079158E-14
     -5.16217028148785E-17
      5.75985200840654E-01
      5.75985200840654E-01   5.75985200840654E-01   0.00000000000000E+00   0.00000000000000E+00   4.48998550825906E-14
      4.70247025244830E-22   4.48998555528376E-14   5.18428997381631E-17   0.00000000000000E+00   0.00000000000000E+00
      0.00000000000000E+00   0.00000000000000E+00  -4.44906574822031E-14  -4.09198070634413E-16  -4.48998555528376E-14
     -5.18428997381628E-17
      5.89124941672244E-01
      5.89124941672244E-01   5.89124941672244E-01   0.00000000000000E+00   0.00000000000000E+00   4.54450812687130E-14
      5.08247581689960E-20   4.54451320934712E-14   5.20507721171355E-17   0.00000000000000E+00   0.00000000000000E+00
      0.00000000000000E+00   0.00000000000000E+00  -4.50323010627872E-14  -4.12831030684003E-16  -4.54451320934712E-14
     -5.20507721171355E-17
      6.13302064802369E-01
      6.13302064802369E-01   6.13302064802369E-01   0.00000000000000E+00   0.00000000000000E+00   4.64387372907784E-14
      7.15852671317295E-20   4.64388088760455E-14   5.24367909240447E-17   0.00000000000000E+00   0.00000000000000E+00
      0.00000000000000E+00   0.00000000000000E+00  -4.60195396879432E-14  -4.19269188102349E-16  -4.64388088760455E-14
     -5.24367909240445E-17
      6.32321401664734E-01
      6.32321401664734E-01   6.32321401664734E-01   0.00000000000000E+00   0.00000000000000E+00   4.72120375538771E-14
      7.13936406727078E-20   4.72121089475178E-14   5.27436241266150E-17   0.00000000000000E+00   0.00000000000000E+00
      0.00000000000000E+00   0.00000000000000E+00  -4.67879524898696E-14  -4.24156457648228E-16  -4.72121089475178E-14
     -5.27436241266149E-17
      6.49819191578110E-01
      6.49819191578110E-01   6.49819191578110E-01   0.00000000000000E+00   0.00000000000000E+00   4.79169450173768E-14
      7.14306579628189E-20   4.79170164480348E-14   5.30283287162387E-17   0.00000000000000E+00   0.00000000000000E+00
      0.00000000000000E+00   0.00000000000000E+00  -4.74884897455034E-14  -4.28526702531369E-16  -4.79170164480347E-14
     -5.30283287162388E-17
      6.65917158298416E-01
      6.65917158298416E-01   6.65917158298416E-01   0.00000000000000E+00   0.00000000000000E+00   4.85569072862212E-14
      8.49646370180964E-20   4.85569922508582E-14   5.32922720477881E-17   0.00000000000000E+00   0.00000000000000E+00
      0.00000000000000E+00   0.00000000000000E+00  -4.81245408912997E-14  -4.32451359558562E-16  -4.85569922508582E-14
     -5.32922720477880E-17
      6.80941927237368E-01
      6.80941927237368E-01   6.80941927237368E-01   0.00000000000000E+00   0.00000000000000E+00   4.91529496858504E-14
      8.20866360656670E-20   4.91530317724865E-14   5.35403366122195E-17   0.00000000000000E+00   0.00000000000000E+00
      0.00000000000000E+00   0.00000000000000E+00  -4.87170298557430E-14  -4.36001916743507E-16  -4.91530317724865E-14
     -5.35403366122196E-17
      6.94965044913723E-01
      6.94965044913723E-01   6.94965044913723E-01   0.00000000000000E+00   0.00000000000000E+00   4.97070327740236E-14
     -2.40973981349829E-22   4.97070325330496E-14   5.37733397577972E-17   0.00000000000000E+00   0.00000000000000E+00
      0.00000000000000E+00   0.00000000000000E+00  -4.92678803199852E-14  -4.39152213064369E-16  -4.97070325330496E-14
     -5.37733397577973E-17
      7.08053288078322E-01
      7.08053288078322E-01   7.08053288078322E-01   0.00000000000000E+00   0.00000000000000E+00   5.02184546784178E-14
      3.66017523907083E-20   5.02184912801702E-14   5.39920793336622E-17   0.00000000000000E+00   0.00000000000000E+00
      0.00000000000000E+00   0.00000000000000E+00  -4.97763673408425E-14  -4.42123939327846E-16  -5.02184912801703E-14
     -5.39920793336622E-17
      7.14073879934037E-01
      7.14073879934037E-01   7.14073879934037E-01   0.00000000000000E+00   0.00000000000000E+00   5.04526104289293E-14
      8.29159545386755E-20   5.04526933448839E-14   5.40931072555204E-17   0.00000000000000E+00   0.00000000000000E+00
      0.00000000000000E+00   0.00000000000000E+00  -5.00091971845724E-14  -4.43496160311542E-16  -5.04526933448839E-14
     -5.40931072555204E-17
      7.25472867180858E-01
      7.25472867180858E-01   7.25472867180858E-01   0.00000000000000E+00   0.00000000000000E+00   5.08937578995882E-14
      2.72072451813160E-19   5.08940299720400E-14   5.42850841350335E-17   0.00000000000000E+00   0.00000000000000E+00
      0.00000000000000E+00   0.00000000000000E+00  -5.04478801395279E-14  -4.46149832512146E-16  -5.08940299720400E-14
     -5.42850841350334E-17
      7.36111921944557E-01
      7.36111921944557E-01   7.36111921944557E-01   0.00000000000000E+00   0.00000000000000E+00   5.13033014396662E-14
      1.89636785790200E-19   5.13034910764519E-14   5.44650791310201E-17   0.00000000000000E+00   0.00000000000000E+00
      0.00000000000000E+00   0.00000000000000E+00  -5.08551756430785E-14  -4.48315433373416E-16  -5.13034910764520E-14
     -5.44650791310202E-17
      7.55971490836796E-01
      7.55971490836796E-01   7.55971490836796E-01   0.00000000000000E+00   0.00000000000000E+00   5.20619574054916E-14
      7.04888408388832E-20   5.20620278943324E-14   5.48031530979840E-17   0.00000000000000E+00   0.00000000000000E+00
      0.00000000000000E+00   0.00000000000000E+00  -5.16097723753860E-14  -4.52255518946382E-16  -5.20620278943324E-14
     -5.48031530979841E-17
      7.73977499965759E-01
      7.73977499965759E-01   7.73977499965759E-01   0.00000000000000E+00   0.00000000000000E+00   5.27432176071795E-14
      7.14723304228045E-20   5.27432890795099E-14   5.51119849618328E-17   0.00000000000000E+00   0.00000000000000E+00
      0.00000000000000E+00   0.00000000000000E+00  -5.22875065465343E-14  -4.55782532975650E-16  -5.27432890795100E-14
     -5.51119849618329E-17
      7.90543028364406E-01
      7.90543028364406E-01   7.90543028364406E-01   0.00000000000000E+00   0.00000000000000E+00   5.33645657057922E-14
      7.14121817906989E-20   5.33646371179740E-14   5.53980205378106E-17   0.00000000000000E+00   0.00000000000000E+00
      0.00000000000000E+00   0.00000000000000E+00  -5.29057386709963E-14  -4.58898446977659E-16  -5.33646371179740E-14
     -5.53980205378107E-17
      8.05783314491160E-01
      8.05783314491160E-01   8.05783314491160E-01   0.00000000000000E+00   0.00000000000000E+00   5.39295871898569E-14
      1.12651124122794E-19   5.39296998409810E-14   5.56627662297999E-17   0.00000000000000E+00   0.00000000000000E+00
      0.00000000000000E+00   0.00000000000000E+00  -5.34679995620583E-14  -4.61700278922815E-16  -5.39296998409811E-14
     -5.56627662297998E-17
      8.20007581542798E-01
      8.20007581542798E-01   8.20007581542798E-01   0.00000000000000E+00   0.00000000000000E+00   5.44567878477009E-14
      3.50818789010209E-21   5.44567913558888E-14   5.59112207105394E-17   0.00000000000000E+00   0.00000000000000E+00
      0.00000000000000E+00   0.00000000000000E+00  -5.39927099681052E-14  -4.64081387783673E-16  -5.44567913558889E-14
     -5.59112207105393E-17
      8.33283564124326E-01
      8.33283564124326E-01   8.33283564124326E-01   0.00000000000000E+00   0.00000000000000E+00   5.49436415686215E-14
      3.61360249240878E-20   5.49436777046464E-14   5.61442799371258E-17   0.00000000000000E+00   0.00000000000000E+00
      0.00000000000000E+00   0.00000000000000E+00  -5.44773188281906E-14  -4.66358876455904E-16  -5.49436777046465E-14
     -5.61442799371258E-17
      8.45497468099332E-01
      8.45497468099332E-01   8.45497468099332E-01   0.00000000000000E+00   0.00000000000000E+00   5.53886817933108E-14
      2.26151067161415E-20   5.53887044084175E-14   5.63596789896830E-17   0.00000000000000E+00   0.00000000000000E+00
      0.00000000000000E+00   0.00000000000000E+00  -5.49203522999146E-14  -4.68352108502890E-16  -5.53887044084175E-14
     -5.63596789896830E-17
      8.56734259756338E-01
      8.56734259756338E-01   8.56734259756338E-01   0.00000000000000E+00   0.00000000000000E+00   5.57957981660703E-14
      6.96462084866330E-19   5.57964946281552E-14   5.65586703487201E-17   0.00000000000000E+00   0.00000000000000E+00
      0.00000000000000E+00   0.00000000000000E+00  -5.53256716944180E-14  -4.70822933737199E-16  -5.57964946281552E-14
     -5.65586703487203E-17
      8.67221931969543E-01
      8.67221931969543E-01   8.67221931969543E-01   0.00000000000000E+00   0.00000000000000E+00   5.61736723297331E-14
      4.98500366449599E-19   5.61741708300995E-14   5.67451010740134E-17   0.00000000000000E+00   0.00000000000000E+00
      0.00000000000000E+00   0.00000000000000E+00  -5.57019133998048E-14  -4.72257430294806E-16  -5.61741708300996E-14
     -5.67451010740135E-17
      8.77010426035201E-01
      8.77010426035201E-01   8.77010426035201E-01   0.00000000000000E+00   0.00000000000000E+00   5.65245959724757E-14
      1.70330388927148E-19   5.65247663028646E-14   5.69197118510781E-17   0.00000000000000E+00   0.00000000000000E+00
      0.00000000000000E+00   0.00000000000000E+00  -5.60513466123890E-14  -4.73419690475610E-16  -5.65247663028646E-14
     -5.69197118510782E-17
      8.95282281624430E-01
      8.95282281624430E-01   8.95282281624430E-01   0.00000000000000E+00   0.00000000000000E+00   5.71749781807849E-14
      7.01249339533195E-20   5.71750483057188E-14   5.72472065822884E-17   0.00000000000000E+00   0.00000000000000E+00
      0.00000000000000E+00   0.00000000000000E+00  -5.66990299593311E-14  -4.76018346387792E-16  -5.71750483057188E-14
     -5.72472065822883E-17
      9.12092388766521E-01
      9.12092388766521E-01   9.12092388766521E-01   0.00000000000000E+00   0.00000000000000E+00   5.77681912835747E-14
      6.84418501233968E-20   5.77682597254248E-14   5.75502660656364E-17   0.00000000000000E+00   0.00000000000000E+00
      0.00000000000000E+00   0.00000000000000E+00  -5.72898503264166E-14  -4.78409399008230E-16  -5.77682597254249E-14
     -5.75502660656364E-17
      9.27557687337244E-01
      9.27557687337244E-01   9.27557687337244E-01   0.00000000000000E+00   0.00000000000000E+00   5.83086121484278E-14
      1.16187802992833E-19   5.83087283362307E-14   5.78305517346885E-17   0.00000000000000E+00   0.00000000000000E+00
      0.00000000000000E+00   0.00000000000000E+00  -5.78281398011834E-14  -4.80588535047433E-16  -5.83087283362308E-14
     -5.78305517346887E-17
      9.41991966003252E-01
      9.41991966003252E-01   9.41991966003252E-01   0.00000000000000E+00   0.00000000000000E+00   5.88111464359443E-14
      5.13420596956509E-20   5.88111977780040E-14   5.80934058995462E-17   0.00000000000000E+00   0.00000000000000E+00
      0.00000000000000E+00   0.00000000000000E+00  -5.83287393088751E-14  -4.82458469128941E-16  -5.88111977780040E-14
     -5.80934058995464E-17
      9.55463959424860E-01
      9.55463959424860E-01   9.55463959424860E-01   0.00000000000000E+00   0.00000000000000E+00   5.92761424897415E-14
      7.12436941895875E-20   5.92762137334357E-14   5.83398149603058E-17   0.00000000000000E+00   0.00000000000000E+00
      0.00000000000000E+00   0.00000000000000E+00  -5.87919744029754E-14  -4.84239330460355E-16  -5.92762137334357E-14
     -5.83398149603057E-17
      9.68037819951694E-01
      9.68037819951694E-01   9.68037819951694E-01   0.00000000000000E+00   0.00000000000000E+00   5.97072766059241E-14
      7.15465893238326E-20   5.97073481525134E-14   5.85707249804642E-17   0.00000000000000E+00   0.00000000000000E+00
      0.00000000000000E+00   0.00000000000000E+00  -5.92214995525663E-14  -4.85848599947006E-16  -5.97073481525133E-14
     -5.85707249804642E-17
      9.91844329215833E-01
      9.91844329215833E-01   9.91844329215833E-01   0.00000000000000E+00   0.00000000000000E+00   6.05164735222470E-14
      7.15821003385951E-20   6.05165451043474E-14   5.90103332513536E-17   0.00000000000000E+00   0.00000000000000E+00
      0.00000000000000E+00   0.00000000000000E+00  -6.00277323844390E-14  -4.88812719908360E-16  -6.05165451043474E-14
     -5.90103332513537E-17
      1.00000000000000E+00
      1.00000000000000E+00   1.00000000000000E+00   0.00000000000000E+00   0.00000000000000E+00   6.07913970151830E-14
      7.15905394466292E-20   6.07914686057224E-14   5.91616533042715E-17   0.00000000000000E+00   0.00000000000000E+00
      0.00000000000000E+00   0.00000000000000E+00  -6.03016625442578E-14  -4.89806061464763E-16  -6.07914686057225E-14
     -5.91616533042715E-17
}
