DF-ISE text

Info {
  version   = 1.0
  type      = xyplot
  datasets  = [
    "time"
    "top OuterVoltage" "top InnerVoltage" "top QuasiFermiPotential" "top DisplacementCurrent" "top eCurrent"
    "top hCurrent" "top TotalCurrent" "top Charge" "bottom OuterVoltage" "bottom InnerVoltage"
    "bottom QuasiFermiPotential" "bottom DisplacementCurrent" "bottom eCurrent" "bottom hCurrent" "bottom TotalCurrent"
    "bottom Charge" ]
  functions = [
    Time
    OuterVoltage InnerVoltage QuasiFermiPotential DisplacementCurrent eCurrent
    hCurrent TotalCurrent Charge OuterVoltage InnerVoltage
    QuasiFermiPotential DisplacementCurrent eCurrent hCurrent TotalCurrent
    Charge ]
}

Data {
      0.00000000000000E+00
      0.00000000000000E+00   0.00000000000000E+00   0.00000000000000E+00   0.00000000000000E+00   3.97274321618321E-23
     -2.65258850761771E-30   3.97274295092436E-23   6.50768129709320E-17   0.00000000000000E+00   0.00000000000000E+00
      0.00000000000000E+00   0.00000000000000E+00  -3.97274321637413E-23   2.65449782268432E-30  -3.97274295092435E-23
     -6.50768129709320E-17
      0.00000000000000E+00
      0.00000000000000E+00   0.00000000000000E+00   0.00000000000000E+00   0.00000000000000E+00  -1.03679263355260E-17
      5.12082704163212E-28  -1.03679263350140E-17   6.50767795982912E-17   0.00000000000000E+00   0.00000000000000E+00
      0.00000000000000E+00   0.00000000000000E+00   1.03679263397348E-17  -4.72084781770772E-27   1.03679263350139E-17
     -6.50767795982912E-17
      1.00000000000000E-02
     -1.00000000000000E-02  -1.00000000000000E-02   0.00000000000000E+00   0.00000000000000E+00  -1.84959419887020E-16
     -8.02898852468401E-19  -1.85762318739489E-16   6.46824246127215E-17   0.00000000000000E+00   0.00000000000000E+00
      0.00000000000000E+00   0.00000000000000E+00   1.73138817108643E-16   1.26235016308459E-17   1.85762318739489E-16
     -6.46824246127214E-17
      2.89333333333333E-02
     -2.89333333333333E-02  -2.89333333333333E-02   0.00000000000000E+00   0.00000000000000E+00  -6.40603471435960E-16
     -3.25032664193246E-18  -6.43853798077892E-16   6.39333108652408E-17   0.00000000000000E+00   0.00000000000000E+00
      0.00000000000000E+00   0.00000000000000E+00   5.99816118725614E-16   4.40376793522780E-17   6.43853798077892E-16
     -6.39333108652408E-17
      6.27608888888889E-02
     -6.27608888888889E-02  -6.27608888888889E-02   0.00000000000000E+00   0.00000000000000E+00  -3.03231853015883E-15
     -1.56637841045716E-17  -3.04798231426340E-15   6.25869013219979E-17   0.00000000000000E+00   0.00000000000000E+00
      0.00000000000000E+00   0.00000000000000E+00   2.90480011450658E-15   1.43182199756822E-16   3.04798231426340E-15
     -6.25869013219978E-17
      1.12760888888889E-01
     -1.12760888888889E-01  -1.12760888888889E-01   0.00000000000000E+00   0.00000000000000E+00  -2.12266868026992E-14
     -1.95239832202333E-16  -2.14219266349015E-14   6.05782307254603E-17   0.00000000000000E+00   0.00000000000000E+00
      0.00000000000000E+00   0.00000000000000E+00   2.07904815852319E-14   6.31445049669576E-16   2.14219266349015E-14
     -6.05782307254603E-17
      1.37760888888889E-01
     -1.37760888888889E-01  -1.37760888888889E-01   0.00000000000000E+00   0.00000000000000E+00  -5.46881104311063E-14
     -2.32790455145563E-16  -5.49209008862518E-14   5.95656970685990E-17   0.00000000000000E+00   0.00000000000000E+00
      0.00000000000000E+00   0.00000000000000E+00   5.39199201480304E-14   1.00098073822149E-15   5.49209008862519E-14
     -5.95656970685990E-17
      1.60427555555556E-01
     -1.60427555555556E-01  -1.60427555555556E-01   0.00000000000000E+00   0.00000000000000E+00  -1.28637510607367E-13
     -5.08162331327452E-16  -1.29145672938695E-13   5.86429982398573E-17   0.00000000000000E+00   0.00000000000000E+00
      0.00000000000000E+00   0.00000000000000E+00   1.27370741437774E-13   1.77493150092086E-15   1.29145672938695E-13
     -5.86429982398573E-17
      1.80676444444444E-01
     -1.80676444444444E-01  -1.80676444444444E-01   0.00000000000000E+00   0.00000000000000E+00  -2.76045089686647E-13
     -1.10353327719050E-15  -2.77148622963837E-13   5.78149957454729E-17   0.00000000000000E+00   0.00000000000000E+00
      0.00000000000000E+00   0.00000000000000E+00   2.74070343159124E-13   3.07827980471326E-15   2.77148622963837E-13
     -5.78149957454729E-17
      1.89585955555556E-01
     -1.89585955555556E-01  -1.89585955555556E-01   0.00000000000000E+00   0.00000000000000E+00  -3.86252526374606E-13
     -1.63656816103962E-15  -3.87889094535645E-13   5.74495672586687E-17   0.00000000000000E+00   0.00000000000000E+00
      0.00000000000000E+00   0.00000000000000E+00   3.83852126587672E-13   4.03696794797372E-15   3.87889094535645E-13
     -5.74495672586688E-17
      2.06454629925926E-01
     -2.06454629925926E-01  -2.06454629925926E-01   0.00000000000000E+00   0.00000000000000E+00  -7.29597138916167E-13
     -2.98336586110397E-15  -7.32580504777271E-13   5.67558432297123E-17   0.00000000000000E+00   0.00000000000000E+00
      0.00000000000000E+00   0.00000000000000E+00   7.26119604236313E-13   6.46090054095821E-15   7.32580504777271E-13
     -5.67558432297123E-17
      2.37043159450864E-01
     -2.37043159450864E-01  -2.37043159450864E-01   0.00000000000000E+00   0.00000000000000E+00  -2.31142944816159E-12
     -9.69846579996371E-15  -2.32112791396155E-12   5.54917440318055E-17   0.00000000000000E+00   0.00000000000000E+00
      0.00000000000000E+00   0.00000000000000E+00   2.30457936870624E-12   1.65485452553167E-14   2.32112791396155E-12
     -5.54917440318055E-17
      2.49543159450864E-01
     -2.49543159450864E-01  -2.49543159450864E-01   0.00000000000000E+00   0.00000000000000E+00  -3.70232397084529E-12
     -1.58212000537215E-14  -3.71814517089902E-12   5.49728867939482E-17   0.00000000000000E+00   0.00000000000000E+00
      0.00000000000000E+00   0.00000000000000E+00   3.69325779002722E-12   2.48873808718001E-14   3.71814517089902E-12
     -5.49728867939482E-17
      2.71876492784198E-01
     -2.71876492784198E-01  -2.71876492784198E-01   0.00000000000000E+00   0.00000000000000E+00  -8.58736817809348E-12
     -3.72235073118768E-14  -8.62459168540535E-12   5.40425270532475E-17   0.00000000000000E+00   0.00000000000000E+00
      0.00000000000000E+00   0.00000000000000E+00   8.57230771369735E-12   5.22839717079824E-14   8.62459168540534E-12
     -5.40425270532476E-17
      2.90636492784198E-01
     -2.90636492784198E-01  -2.90636492784198E-01   0.00000000000000E+00   0.00000000000000E+00  -1.74001304713874E-11
     -7.68476452063590E-14  -1.74769781165938E-11   5.32576360800452E-17   0.00000000000000E+00   0.00000000000000E+00
      0.00000000000000E+00   0.00000000000000E+00   1.73768836359615E-11   1.00094480632205E-13   1.74769781165938E-11
     -5.32576360800453E-17
      2.94701159450864E-01
     -2.94701159450864E-01  -2.94701159450864E-01   0.00000000000000E+00   0.00000000000000E+00  -2.02751928320027E-11
     -8.99171327549047E-14  -2.03651099647576E-11   5.30871532659137E-17   0.00000000000000E+00   0.00000000000000E+00
      0.00000000000000E+00   0.00000000000000E+00   2.02496257607483E-11   1.15484204009218E-13   2.03651099647575E-11
     -5.30871532659137E-17
      3.02396928339753E-01
     -3.02396928339753E-01  -3.02396928339753E-01   0.00000000000000E+00   0.00000000000000E+00  -2.70807916001243E-11
     -1.21057468477046E-13  -2.72018490686014E-11   5.27639432746970E-17   0.00000000000000E+00   0.00000000000000E+00
      0.00000000000000E+00   0.00000000000000E+00   2.70501434151738E-11   1.51705653427566E-13   2.72018490686013E-11
     -5.27639432746971E-17
      3.16762363599012E-01
     -3.16762363599012E-01  -3.16762363599012E-01   0.00000000000000E+00   0.00000000000000E+00  -4.64631031219068E-11
     -2.10922247251332E-13  -4.66740253691582E-11   5.21590400262223E-17   0.00000000000000E+00   0.00000000000000E+00
      0.00000000000000E+00   0.00000000000000E+00   4.64199312928875E-11   2.54094076270530E-13   4.66740253691581E-11
     -5.21590400262223E-17
      3.42428607928889E-01
     -3.42428607928889E-01  -3.42428607928889E-01   0.00000000000000E+00   0.00000000000000E+00  -1.21657287852513E-10
     -5.68570055549473E-13  -1.22225857908063E-10   5.10724238652881E-17   0.00000000000000E+00   0.00000000000000E+00
      0.00000000000000E+00   0.00000000000000E+00   1.21576458010650E-10   6.49399897412516E-13   1.22225857908063E-10
     -5.10724238652881E-17
      3.47390748499332E-01
     -3.47390748499332E-01  -3.47390748499332E-01   0.00000000000000E+00   0.00000000000000E+00  -1.46482033661270E-10
     -6.88734266206269E-13  -1.47170767927476E-10   5.08613121952067E-17   0.00000000000000E+00   0.00000000000000E+00
      0.00000000000000E+00   0.00000000000000E+00   1.46390570595462E-10   7.80197332013740E-13   1.47170767927476E-10
     -5.08613121952066E-17
      3.52088241572684E-01
     -3.52088241572684E-01  -3.52088241572684E-01   0.00000000000000E+00   0.00000000000000E+00  -1.74607380120402E-10
     -8.25803690802960E-13  -1.75433183811205E-10   5.06610917807707E-17   0.00000000000000E+00   0.00000000000000E+00
      0.00000000000000E+00   0.00000000000000E+00   1.74504492033095E-10   9.28691778110413E-13   1.75433183811206E-10
     -5.06610917807707E-17
      3.60982161791565E-01
     -3.60982161791565E-01  -3.60982161791565E-01   0.00000000000000E+00   0.00000000000000E+00  -2.43375050835923E-10
     -1.16443111732606E-12  -2.44539481953249E-10   5.02809054243457E-17   0.00000000000000E+00   0.00000000000000E+00
      0.00000000000000E+00   0.00000000000000E+00   2.43246236470727E-10   1.29324548252210E-12   2.44539481953249E-10
     -5.02809054243457E-17
      3.77346974994306E-01
     -3.77346974994306E-01  -3.77346974994306E-01   0.00000000000000E+00   0.00000000000000E+00  -4.47424973772744E-10
     -2.19121618920536E-12  -4.49616189961950E-10   4.95766678948968E-17   0.00000000000000E+00   0.00000000000000E+00
      0.00000000000000E+00   0.00000000000000E+00   4.47228997278987E-10   2.38719268296220E-12   4.49616189961949E-10
     -4.95766678948967E-17
      3.91748010612717E-01
     -3.91748010612717E-01  -3.91748010612717E-01   0.00000000000000E+00   0.00000000000000E+00  -7.62187587250675E-10
     -3.82180464083576E-12  -7.66009391891510E-10   4.89499567915004E-17   0.00000000000000E+00   0.00000000000000E+00
      0.00000000000000E+00   0.00000000000000E+00   7.61902455506059E-10   4.10693638545023E-12   7.66009391891510E-10
     -4.89499567915005E-17
      3.98276480093064E-01
     -3.98276480093064E-01  -3.98276480093064E-01   0.00000000000000E+00   0.00000000000000E+00  -9.69085987059872E-10
     -4.91777234688247E-12  -9.74003759406754E-10   4.86628613000824E-17   0.00000000000000E+00   0.00000000000000E+00
      0.00000000000000E+00   0.00000000000000E+00   9.68747580597118E-10   5.25617880963617E-12   9.74003759406754E-10
     -4.86628613000825E-17
      4.04456764534459E-01
     -4.04456764534459E-01  -4.04456764534459E-01   0.00000000000000E+00   0.00000000000000E+00  -1.21530363307998E-09
     -6.24330914453011E-12  -1.22154694222451E-09   4.83888683339339E-17   0.00000000000000E+00   0.00000000000000E+00
      0.00000000000000E+00   0.00000000000000E+00   1.21490545868688E-09   6.64148353763328E-12   1.22154694222451E-09
     -4.83888683339339E-17
      4.10307433805646E-01
     -4.10307433805646E-01  -4.10307433805646E-01   0.00000000000000E+00   0.00000000000000E+00  -1.50427905804992E-09
     -7.82561877934628E-12  -1.51210467682926E-09   4.81271177832936E-17   0.00000000000000E+00   0.00000000000000E+00
      0.00000000000000E+00   0.00000000000000E+00   1.50381450826667E-09   8.29016856259549E-12   1.51210467682926E-09
     -4.81271177832936E-17
      4.15846067382370E-01
     -4.15846067382370E-01  -4.15846067382370E-01   0.00000000000000E+00   0.00000000000000E+00  -1.83899426355832E-09
     -9.69112904492700E-12  -1.84868539260325E-09   4.78768043111011E-17   0.00000000000000E+00   0.00000000000000E+00
      0.00000000000000E+00   0.00000000000000E+00   1.83845673137354E-09   1.02286612297096E-11   1.84868539260325E-09
     -4.78768043111012E-17
      4.26332546954300E-01
     -4.26332546954300E-01  -4.26332546954300E-01   0.00000000000000E+00   0.00000000000000E+00  -2.68129911845427E-09
     -1.45253744437029E-11  -2.69582449289797E-09   4.73945287381978E-17   0.00000000000000E+00   0.00000000000000E+00
      0.00000000000000E+00   0.00000000000000E+00   2.68059124266187E-09   1.52332502361062E-11   2.69582449289798E-09
     -4.73945287381978E-17
      4.45348029911400E-01
     -4.45348029911400E-01  -4.45348029911400E-01   0.00000000000000E+00   0.00000000000000E+00  -5.23684780492807E-09
     -3.02386329415327E-11  -5.26708643786960E-09   4.64805423199187E-17   0.00000000000000E+00   0.00000000000000E+00
      0.00000000000000E+00   0.00000000000000E+00   5.23569257261897E-09   3.13938652506259E-11   5.26708643786960E-09
     -4.64805423199186E-17
      4.52700683321479E-01
     -4.52700683321479E-01  -4.52700683321479E-01   0.00000000000000E+00   0.00000000000000E+00  -6.74123318095909E-09
     -4.01381298183942E-11  -6.78137131077748E-09   4.61080233721264E-17   0.00000000000000E+00   0.00000000000000E+00
      0.00000000000000E+00   0.00000000000000E+00   6.73984528432436E-09   4.15260264531269E-11   6.78137131077748E-09
     -4.61080233721265E-17
      4.59563159837553E-01
     -4.59563159837553E-01  -4.59563159837553E-01   0.00000000000000E+00   0.00000000000000E+00  -8.50039181657796E-09
     -5.22708592506434E-11  -8.55266267582861E-09   4.57475911793216E-17   0.00000000000000E+00   0.00000000000000E+00
      0.00000000000000E+00   0.00000000000000E+00   8.49875181188893E-09   5.39108639396841E-11   8.55266267582861E-09
     -4.57475911793216E-17
      4.66059637606103E-01
     -4.66059637606103E-01  -4.66059637606103E-01   0.00000000000000E+00   0.00000000000000E+00  -1.05474062753737E-08
     -6.71032488843867E-11  -1.06145095242581E-08   4.53929678672358E-17   0.00000000000000E+00   0.00000000000000E+00
      0.00000000000000E+00   0.00000000000000E+00   1.05454945343716E-08   6.90149898865411E-11   1.06145095242581E-08
     -4.53929678672357E-17
      4.72209636560330E-01
     -4.72209636560330E-01  -4.72209636560330E-01   0.00000000000000E+00   0.00000000000000E+00  -1.28910589490091E-08
     -8.49830692041230E-11  -1.29760420182132E-08   4.50433037036201E-17   0.00000000000000E+00   0.00000000000000E+00
      0.00000000000000E+00   0.00000000000000E+00   1.28888594556874E-08   8.71825625258050E-11   1.29760420182132E-08
     -4.50433037036201E-17
      4.83853634580333E-01
     -4.83853634580333E-01  -4.83853634580333E-01   0.00000000000000E+00   0.00000000000000E+00  -1.86552025155782E-08
     -1.32801010490224E-10  -1.87880035260684E-08   4.43370710668672E-17   0.00000000000000E+00   0.00000000000000E+00
      0.00000000000000E+00   0.00000000000000E+00   1.86523786569866E-08   1.35624869081869E-10   1.87880035260685E-08
     -4.43370710668672E-17
      5.05278590937138E-01
     -5.05278590937138E-01  -5.05278590937138E-01   0.00000000000000E+00   0.00000000000000E+00  -3.54643944833040E-08
     -3.00692008039454E-10  -3.57650864913434E-08   4.28442189064482E-17   0.00000000000000E+00   0.00000000000000E+00
      0.00000000000000E+00   0.00000000000000E+00   3.54602182465257E-08   3.04868244817680E-10   3.57650864913434E-08
     -4.28442189064482E-17
      5.14134239564618E-01
     -5.14134239564618E-01  -5.14134239564618E-01   0.00000000000000E+00   0.00000000000000E+00  -4.55817438910411E-08
     -4.20581295440620E-10  -4.60023251864817E-08   4.21363991259386E-17   0.00000000000000E+00   0.00000000000000E+00
      0.00000000000000E+00   0.00000000000000E+00   4.55769973726793E-08   4.25327813802378E-10   4.60023251864817E-08
     -4.21363991259386E-17
      5.22399511616933E-01
     -5.22399511616933E-01  -5.22399511616933E-01   0.00000000000000E+00   0.00000000000000E+00  -5.71802773409856E-08
     -5.74333273774376E-10  -5.77546106147599E-08   4.14197162664861E-17   0.00000000000000E+00   0.00000000000000E+00
      0.00000000000000E+00   0.00000000000000E+00   5.71750532520865E-08   5.79557362673440E-10   5.77546106147600E-08
     -4.14197162664861E-17
      5.30113765532426E-01
     -5.30113765532426E-01  -5.30113765532426E-01   0.00000000000000E+00   0.00000000000000E+00  -7.02033749522462E-08
     -7.66860332532269E-10  -7.09702352847785E-08   4.06980009831499E-17   0.00000000000000E+00   0.00000000000000E+00
      0.00000000000000E+00   0.00000000000000E+00   7.01978088549073E-08   7.72426429871356E-10   7.09702352847787E-08
     -4.06980009831500E-17
      5.37313735853553E-01
     -5.37313735853553E-01  -5.37313735853553E-01   0.00000000000000E+00   0.00000000000000E+00  -8.45627469145324E-08
     -1.00259941031866E-09  -8.55653463248511E-08   3.99757089120805E-17   0.00000000000000E+00   0.00000000000000E+00
      0.00000000000000E+00   0.00000000000000E+00   8.45570151356511E-08   1.00833118920003E-09   8.55653463248511E-08
     -3.99757089120806E-17
      5.50753680452991E-01
     -5.50753680452991E-01  -5.50753680452991E-01   0.00000000000000E+00   0.00000000000000E+00  -1.18088864227020E-07
     -1.64424355029746E-09  -1.19733107777318E-07   3.84958504565012E-17   0.00000000000000E+00   0.00000000000000E+00
      0.00000000000000E+00   0.00000000000000E+00   1.18083504091201E-07   1.64960368611712E-09   1.19733107777318E-07
     -3.84958504565012E-17
      5.63118429484473E-01
     -5.63118429484473E-01  -5.63118429484473E-01   0.00000000000000E+00   0.00000000000000E+00  -1.58199804402909E-07
     -2.57062440142995E-09  -1.60770428804339E-07   3.69803672125087E-17   0.00000000000000E+00   0.00000000000000E+00
      0.00000000000000E+00   0.00000000000000E+00   1.58196117252230E-07   2.57431155210917E-09   1.60770428804339E-07
     -3.69803672125086E-17
      5.85869567702401E-01
     -5.85869567702401E-01  -5.85869567702401E-01   0.00000000000000E+00   0.00000000000000E+00  -2.61507981710536E-07
     -5.68633811582645E-09  -2.67194319826363E-07   3.38283971351613E-17   0.00000000000000E+00   0.00000000000000E+00
      0.00000000000000E+00   0.00000000000000E+00   2.61513868122531E-07   5.68045170383171E-09   2.67194319826363E-07
     -3.38283971351614E-17
      6.05587220824605E-01
     -6.05587220824605E-01  -6.05587220824605E-01   0.00000000000000E+00   0.00000000000000E+00  -3.89727349658048E-07
     -1.08680499429611E-08  -4.00595399601009E-07   3.07954914098763E-17   0.00000000000000E+00   0.00000000000000E+00
      0.00000000000000E+00   0.00000000000000E+00   3.89754183834123E-07   1.08412157668857E-08   4.00595399601009E-07
     -3.07954914098762E-17
      6.14525890240004E-01
     -6.14525890240004E-01  -6.14525890240004E-01   0.00000000000000E+00   0.00000000000000E+00  -4.61714075977715E-07
     -1.43528920493778E-08  -4.76066968027093E-07   2.93656173879489E-17   0.00000000000000E+00   0.00000000000000E+00
      0.00000000000000E+00   0.00000000000000E+00   4.61756551037847E-07   1.43104169892454E-08   4.76066968027093E-07
     -2.93656173879489E-17
      6.30973041964338E-01
     -6.30973041964338E-01  -6.30973041964338E-01   0.00000000000000E+00   0.00000000000000E+00  -6.18772360828718E-07
     -2.32470084489126E-08  -6.42019369277630E-07   2.67144469427598E-17   0.00000000000000E+00   0.00000000000000E+00
      0.00000000000000E+00   0.00000000000000E+00   6.18857568755410E-07   2.31618005222198E-08   6.42019369277630E-07
     -2.67144469427598E-17
      6.46104421550726E-01
     -6.46104421550726E-01  -6.46104421550726E-01   0.00000000000000E+00   0.00000000000000E+00  -7.92112892971266E-07
     -3.49055709282386E-08  -8.27018463899505E-07   2.43277407830500E-17   0.00000000000000E+00   0.00000000000000E+00
      0.00000000000000E+00   0.00000000000000E+00   7.92257486463572E-07   3.47609774359335E-08   8.27018463899505E-07
     -2.43277407830500E-17
      6.73946159989679E-01
     -6.73946159989679E-01  -6.73946159989679E-01   0.00000000000000E+00   0.00000000000000E+00  -1.17856820419638E-06
     -6.67335291893517E-08  -1.24530173338573E-06   2.03062423173275E-17   0.00000000000000E+00   0.00000000000000E+00
      0.00000000000000E+00   0.00000000000000E+00   1.17888382429869E-06   6.64179090870366E-08   1.24530173338573E-06
     -2.03062423173275E-17
      6.86196524902819E-01
     -6.86196524902819E-01  -6.86196524902819E-01   0.00000000000000E+00   0.00000000000000E+00  -1.37162416589204E-06
     -8.51742475143839E-08  -1.45679841340643E-06   1.87502043915383E-17   0.00000000000000E+00   0.00000000000000E+00
      0.00000000000000E+00   0.00000000000000E+00   1.37204206736080E-06   8.47563460456337E-08   1.45679841340643E-06
     -1.87502043915384E-17
      6.97466860622907E-01
     -6.97466860622907E-01  -6.97466860622907E-01   0.00000000000000E+00   0.00000000000000E+00  -1.55821893752622E-06
     -1.04361086967615E-07  -1.66258002449383E-06   1.74486327796652E-17   0.00000000000000E+00   0.00000000000000E+00
      0.00000000000000E+00   0.00000000000000E+00   1.55874476906429E-06   1.03835255429544E-07   1.66258002449383E-06
     -1.74486327796652E-17
      7.18204278347869E-01
     -7.18204278347869E-01  -7.18204278347869E-01   0.00000000000000E+00   0.00000000000000E+00  -1.91530368580913E-06
     -1.44302213880347E-07  -2.05960589968948E-06   1.53786564877145E-17   0.00000000000000E+00   0.00000000000000E+00
      0.00000000000000E+00   0.00000000000000E+00   1.91605762458711E-06   1.43548275102371E-07   2.05960589968948E-06
     -1.53786564877145E-17
      7.37282702654835E-01
     -7.37282702654835E-01  -7.37282702654835E-01   0.00000000000000E+00   0.00000000000000E+00  -2.24820010536896E-06
     -1.84754144951002E-07  -2.43295425031996E-06   1.38202062165817E-17   0.00000000000000E+00   0.00000000000000E+00
      0.00000000000000E+00   0.00000000000000E+00   2.24918838724258E-06   1.83765863077382E-07   2.43295425031996E-06
     -1.38202062165817E-17
      7.54326095035724E-01
     -7.54326095035724E-01  -7.54326095035724E-01   0.00000000000000E+00   0.00000000000000E+00  -2.54037486272207E-06
     -2.22371915206688E-07  -2.76274677792876E-06   1.26712061709675E-17   0.00000000000000E+00   0.00000000000000E+00
      0.00000000000000E+00   0.00000000000000E+00   2.54158324164040E-06   2.21163536288364E-07   2.76274677792876E-06
     -1.26712061709675E-17
      7.70006016026142E-01
     -7.70006016026142E-01  -7.70006016026142E-01   0.00000000000000E+00   0.00000000000000E+00  -2.80008511485871E-06
     -2.57206042259427E-07  -3.05729115711814E-06   1.17845540676791E-17   0.00000000000000E+00   0.00000000000000E+00
      0.00000000000000E+00   0.00000000000000E+00   2.80149878216905E-06   2.55792374949091E-07   3.05729115711814E-06
     -1.17845540676791E-17
      7.84431543337327E-01
     -7.84431543337327E-01  -7.84431543337327E-01   0.00000000000000E+00   0.00000000000000E+00  -3.02916165739385E-06
     -2.88865373245195E-07  -3.31802703063904E-06   1.10888491522053E-17   0.00000000000000E+00   0.00000000000000E+00
      0.00000000000000E+00   0.00000000000000E+00   3.03076294102950E-06   2.87264089609538E-07   3.31802703063904E-06
     -1.10888491522053E-17
      7.97703028463617E-01
     -7.97703028463617E-01  -7.97703028463617E-01   0.00000000000000E+00   0.00000000000000E+00  -3.23082886821137E-06
     -3.17366753539005E-07  -3.54819562175038E-06   1.05332743495953E-17   0.00000000000000E+00   0.00000000000000E+00
      0.00000000000000E+00   0.00000000000000E+00   3.23259979528145E-06   3.15595826468928E-07   3.54819562175038E-06
     -1.05332743495953E-17
      8.22122561095990E-01
     -8.22122561095990E-01  -8.22122561095990E-01   0.00000000000000E+00   0.00000000000000E+00  -3.57922961099742E-06
     -3.67792288984004E-07  -3.94702189998142E-06   9.67909584438061E-18   0.00000000000000E+00   0.00000000000000E+00
      0.00000000000000E+00   0.00000000000000E+00   3.58130218976539E-06   3.65719710216033E-07   3.94702189998142E-06
     -9.67909584438056E-18
      8.44262937349342E-01
     -8.44262937349342E-01  -8.44262937349342E-01   0.00000000000000E+00   0.00000000000000E+00  -3.87165967731218E-06
     -4.11093395351479E-07  -4.28275307266366E-06   9.04869579035638E-18   0.00000000000000E+00   0.00000000000000E+00
      0.00000000000000E+00   0.00000000000000E+00   3.87399265334806E-06   4.08760419315591E-07   4.28275307266366E-06
     -9.04869579035640E-18
      8.64336878485714E-01
     -8.64336878485714E-01  -8.64336878485714E-01   0.00000000000000E+00   0.00000000000000E+00  -4.11995574875112E-06
     -4.48441077538900E-07  -4.56839682629002E-06   8.56529313708121E-18   0.00000000000000E+00   0.00000000000000E+00
      0.00000000000000E+00   0.00000000000000E+00   4.12251422271751E-06   4.45882603572522E-07   4.56839682629003E-06
     -8.56529313708124E-18
      8.73437065134203E-01
     -8.73437065134203E-01  -8.73437065134203E-01   0.00000000000000E+00   0.00000000000000E+00  -4.22782598868147E-06
     -4.64811491059850E-07  -4.69263747974132E-06   8.36838136808682E-18   0.00000000000000E+00   0.00000000000000E+00
      0.00000000000000E+00   0.00000000000000E+00   4.23048354827961E-06   4.62153931461704E-07   4.69263747974131E-06
     -8.36838136808680E-18
      8.90424080211382E-01
     -8.90424080211382E-01  -8.90424080211382E-01   0.00000000000000E+00   0.00000000000000E+00  -4.42212310089101E-06
     -4.94494371892481E-07  -4.91661747278349E-06   8.03179578344168E-18   0.00000000000000E+00   0.00000000000000E+00
      0.00000000000000E+00   0.00000000000000E+00   4.42496068130471E-06   4.91656791478772E-07   4.91661747278348E-06
     -8.03179578344165E-18
      9.06052134082386E-01
     -9.06052134082386E-01  -9.06052134082386E-01   0.00000000000000E+00   0.00000000000000E+00  -4.59342707429726E-06
     -5.20852208523747E-07  -5.11427928282101E-06   7.75279988008751E-18   0.00000000000000E+00   0.00000000000000E+00
      0.00000000000000E+00   0.00000000000000E+00   4.59642488003853E-06   5.17854402782493E-07   5.11427928282102E-06
     -7.75279988008756E-18
      9.20429943643711E-01
     -9.20429943643711E-01  -9.20429943643711E-01   0.00000000000000E+00   0.00000000000000E+00  -4.74525931557781E-06
     -5.44343233893020E-07  -5.28960254947083E-06   7.51824593974720E-18   0.00000000000000E+00   0.00000000000000E+00
      0.00000000000000E+00   0.00000000000000E+00   4.74840020021530E-06   5.41202349255527E-07   5.28960254947082E-06
     -7.51824593974723E-18
      9.46885113236548E-01
     -9.46885113236548E-01  -9.46885113236548E-01   0.00000000000000E+00   0.00000000000000E+00  -5.01147714653298E-06
     -5.85781763837069E-07  -5.59725891037005E-06   7.13318894729911E-18   0.00000000000000E+00   0.00000000000000E+00
      0.00000000000000E+00   0.00000000000000E+00   5.01487103950232E-06   5.82387870867740E-07   5.59725891037006E-06
     -7.13318894729910E-18
      9.70871133667386E-01
     -9.70871133667386E-01  -9.70871133667386E-01   0.00000000000000E+00   0.00000000000000E+00  -5.23944348517990E-06
     -6.21475681103178E-07  -5.86091916628308E-06   6.82738268061535E-18   0.00000000000000E+00   0.00000000000000E+00
      0.00000000000000E+00   0.00000000000000E+00   5.24305591209962E-06   6.17863254183452E-07   5.86091916628307E-06
     -6.82738268061540E-18
      9.85435566833693E-01
     -9.85435566833693E-01  -9.85435566833693E-01   0.00000000000000E+00   0.00000000000000E+00  -5.37216449603469E-06
     -6.42329506633318E-07  -6.01449400266801E-06   6.65855685832169E-18   0.00000000000000E+00   0.00000000000000E+00
      0.00000000000000E+00   0.00000000000000E+00   5.37590484522618E-06   6.38589157441834E-07   6.01449400266802E-06
     -6.65855685832154E-18
      1.00000000000000E+00
     -1.00000000000000E+00  -1.00000000000000E+00   0.00000000000000E+00   0.00000000000000E+00  -5.50086053787181E-06
     -6.62594647687891E-07  -6.16345518555970E-06   6.50085727664356E-18   0.00000000000000E+00   0.00000000000000E+00
      0.00000000000000E+00   0.00000000000000E+00   5.50472536616722E-06   6.58729819392490E-07   6.16345518555971E-06
     -6.50085727664359E-18
}
