DF-ISE text

Info {
  version   = 1.0
  type      = xyplot
  datasets  = [
    "time"
    "top OuterVoltage" "top InnerVoltage" "top QuasiFermiPotential" "top DisplacementCurrent" "top eCurrent"
    "top hCurrent" "top TotalCurrent" "top Charge" "bottom OuterVoltage" "bottom InnerVoltage"
    "bottom QuasiFermiPotential" "bottom DisplacementCurrent" "bottom eCurrent" "bottom hCurrent" "bottom TotalCurrent"
    "bottom Charge" ]
  functions = [
    Time
    OuterVoltage InnerVoltage QuasiFermiPotential DisplacementCurrent eCurrent
    hCurrent TotalCurrent Charge OuterVoltage InnerVoltage
    QuasiFermiPotential DisplacementCurrent eCurrent hCurrent TotalCurrent
    Charge ]
}

Data {
      0.00000000000000E+00
      0.00000000000000E+00   0.00000000000000E+00   0.00000000000000E+00   0.00000000000000E+00  -6.15237511961402E-22
     -1.05526955728048E-30  -6.15237513016671E-22   6.96688734560146E-17   0.00000000000000E+00   0.00000000000000E+00
      0.00000000000000E+00   0.00000000000000E+00   6.15237511896249E-22   1.12042287050950E-30   6.15237513016672E-22
     -6.96688734560145E-17
      0.00000000000000E+00
      0.00000000000000E+00   0.00000000000000E+00   0.00000000000000E+00   0.00000000000000E+00  -1.82216034606944E-15
      3.21354401489975E-27  -1.82216034606622E-15   6.96690488636983E-17   0.00000000000000E+00   0.00000000000000E+00
      0.00000000000000E+00   0.00000000000000E+00   1.82216034606953E-15  -3.30866230979226E-27   1.82216034606623E-15
     -6.96690488636983E-17
      1.00000000000000E-02
      1.00000000000000E-02   1.00000000000000E-02   0.00000000000000E+00   0.00000000000000E+00   6.59020946797157E-15
      2.69711595278210E-21   6.59021216508752E-15   6.97347205067751E-17   0.00000000000000E+00   0.00000000000000E+00
      0.00000000000000E+00   0.00000000000000E+00  -6.56196939582799E-15  -2.82427692595297E-17  -6.59021216508752E-15
     -6.97347205067752E-17
      1.94666666666667E-02
      1.94666666666667E-02   1.94666666666667E-02   0.00000000000000E+00   0.00000000000000E+00   1.11366341420782E-14
      4.44535144080661E-21   1.11366385874297E-14   6.97977368534374E-17   0.00000000000000E+00   0.00000000000000E+00
      0.00000000000000E+00   0.00000000000000E+00  -1.10857964301217E-14  -5.08421573079157E-17  -1.11366385874297E-14
     -6.97977368534374E-17
      2.84284444444444E-02
      2.84284444444444E-02   2.84284444444444E-02   0.00000000000000E+00   0.00000000000000E+00   1.43568870457434E-14
      5.60125325389989E-21   1.43568926469966E-14   6.98581508444417E-17   0.00000000000000E+00   0.00000000000000E+00
      0.00000000000000E+00   0.00000000000000E+00  -1.42876044099742E-14  -6.92882370224503E-17  -1.43568926469967E-14
     -6.98581508444417E-17
      4.53960770370370E-02
      4.53960770370370E-02   4.53960770370370E-02   0.00000000000000E+00   0.00000000000000E+00   1.85362891529337E-14
      6.06824361139604E-21   1.85362952211773E-14   6.99745523028106E-17   0.00000000000000E+00   0.00000000000000E+00
      0.00000000000000E+00   0.00000000000000E+00  -1.84380098526237E-14  -9.82853685535856E-17  -1.85362952211773E-14
     -6.99745523028106E-17
      6.07800639209876E-02
      6.07800639209876E-02   6.07800639209876E-02   0.00000000000000E+00   0.00000000000000E+00   2.09837744390749E-14
      8.39898962300447E-21   2.09837828380645E-14   7.00823672034402E-17   0.00000000000000E+00   0.00000000000000E+00
      0.00000000000000E+00   0.00000000000000E+00  -2.08640369511384E-14  -1.19745886926048E-16  -2.09837828380645E-14
     -7.00823672034401E-17
      7.49333318542222E-02
      7.49333318542222E-02   7.49333318542222E-02   0.00000000000000E+00   0.00000000000000E+00   2.25923751416571E-14
      7.91402715581910E-21   2.25923830556843E-14   7.01834647176580E-17   0.00000000000000E+00   0.00000000000000E+00
      0.00000000000000E+00   0.00000000000000E+00  -2.24557051900219E-14  -1.36677865662357E-16  -2.25923830556842E-14
     -7.01834647176580E-17
      8.79543383527980E-02
      8.79543383527980E-02   8.79543383527980E-02   0.00000000000000E+00   0.00000000000000E+00   2.37490992325363E-14
      8.09204796262330E-21   2.37491073245842E-14   7.02780846088433E-17   0.00000000000000E+00   0.00000000000000E+00
      0.00000000000000E+00   0.00000000000000E+00  -2.35985742872044E-14  -1.50533037379795E-16  -2.37491073245842E-14
     -7.02780846088433E-17
      1.00107277751469E-01
      1.00107277751469E-01   1.00107277751469E-01   0.00000000000000E+00   0.00000000000000E+00   2.46577358316337E-14
      8.19249035551890E-21   2.46577440241240E-14   7.03677847475283E-17   0.00000000000000E+00   0.00000000000000E+00
      0.00000000000000E+00   0.00000000000000E+00  -2.44954070112891E-14  -1.62337012834855E-16  -2.46577440241240E-14
     -7.03677847475282E-17
      1.11287981998246E-01
      1.11287981998246E-01   1.11287981998246E-01   0.00000000000000E+00   0.00000000000000E+00   2.54019129938900E-14
      8.25021617950467E-21   2.54019212441062E-14   7.04514893780091E-17   0.00000000000000E+00   0.00000000000000E+00
      0.00000000000000E+00   0.00000000000000E+00  -2.52294835300404E-14  -1.72437714065802E-16  -2.54019212441062E-14
     -7.04514893780091E-17
      1.21723305961904E-01
      1.21723305961904E-01   1.21723305961904E-01   0.00000000000000E+00   0.00000000000000E+00   2.60452266416546E-14
      8.28479484165480E-21   2.60452349264494E-14   7.05306316208724E-17   0.00000000000000E+00   0.00000000000000E+00
      0.00000000000000E+00   0.00000000000000E+00  -2.58639078752984E-14  -1.81327051151026E-16  -2.60452349264494E-14
     -7.05306316208724E-17
      1.31462941661319E-01
      1.31462941661319E-01   1.31462941661319E-01   0.00000000000000E+00   0.00000000000000E+00   2.66157961875216E-14
      8.30594760549937E-21   2.66158044934692E-14   7.06053821147854E-17   0.00000000000000E+00   0.00000000000000E+00
      0.00000000000000E+00   0.00000000000000E+00  -2.64265781677237E-14  -1.89226325745584E-16  -2.66158044934692E-14
     -7.06053821147854E-17
      1.40683130123432E-01
      1.40683130123432E-01   1.40683130123432E-01   0.00000000000000E+00   0.00000000000000E+00   2.71378671565707E-14
      8.31927604488527E-21   2.71378754758468E-14   7.06769307339564E-17   0.00000000000000E+00   0.00000000000000E+00
      0.00000000000000E+00   0.00000000000000E+00  -2.69414794706069E-14  -1.96396005239850E-16  -2.71378754758467E-14
     -7.06769307339565E-17
      1.58140020278365E-01
      1.58140020278365E-01   1.58140020278365E-01   0.00000000000000E+00   0.00000000000000E+00   2.80949703852580E-14
      8.33203595928096E-21   2.80949787172940E-14   7.08144801308046E-17   0.00000000000000E+00   0.00000000000000E+00
      0.00000000000000E+00   0.00000000000000E+00  -2.78857185936464E-14  -2.09260123647563E-16  -2.80949787172940E-14
     -7.08144801308046E-17
      1.73967600685504E-01
      1.73967600685504E-01   1.73967600685504E-01   0.00000000000000E+00   0.00000000000000E+00   2.89405540510567E-14
      8.14169442604020E-21   2.89405621927512E-14   7.09415399838340E-17   0.00000000000000E+00   0.00000000000000E+00
      0.00000000000000E+00   0.00000000000000E+00  -2.87203355229052E-14  -2.20226669846041E-16  -2.89405621927512E-14
     -7.09415399838340E-17
      1.88528974660073E-01
      1.88528974660073E-01   1.88528974660073E-01   0.00000000000000E+00   0.00000000000000E+00   2.97005329063120E-14
      1.94764317906058E-20   2.97005523827438E-14   7.10603988401275E-17   0.00000000000000E+00   0.00000000000000E+00
      0.00000000000000E+00   0.00000000000000E+00  -2.94707359942192E-14  -2.29816388524530E-16  -2.97005523827438E-14
     -7.10603988401274E-17
      2.02119590369670E-01
      2.02119590369670E-01   2.02119590369670E-01   0.00000000000000E+00   0.00000000000000E+00   3.04147325944718E-14
      2.13955750943017E-20   3.04147539900469E-14   7.11730246107645E-17   0.00000000000000E+00   0.00000000000000E+00
      0.00000000000000E+00   0.00000000000000E+00  -3.01763933021677E-14  -2.38360687879252E-16  -3.04147539900470E-14
     -7.11730246107646E-17
      2.14804165031960E-01
      2.14804165031960E-01   2.14804165031960E-01   0.00000000000000E+00   0.00000000000000E+00   3.10701714044970E-14
      8.33681540020288E-21   3.10701797413124E-14   7.12796090688280E-17   0.00000000000000E+00   0.00000000000000E+00
      0.00000000000000E+00   0.00000000000000E+00  -3.08241762460969E-14  -2.46003495215492E-16  -3.10701797413124E-14
     -7.12796090688281E-17
      2.26643101383431E-01
      2.26643101383431E-01   2.26643101383431E-01   0.00000000000000E+00   0.00000000000000E+00   3.16776906420267E-14
      8.26759578273774E-21   3.16776989096225E-14   7.13803610828611E-17   0.00000000000000E+00   0.00000000000000E+00
      0.00000000000000E+00   0.00000000000000E+00  -3.14248058958824E-14  -2.52893013740086E-16  -3.16776989096225E-14
     -7.13803610828611E-17
      2.37692775311471E-01
      2.37692775311471E-01   2.37692775311471E-01   0.00000000000000E+00   0.00000000000000E+00   3.22413633240270E-14
      8.34096302409956E-21   3.22413716649900E-14   7.14755014498940E-17   0.00000000000000E+00   0.00000000000000E+00
      0.00000000000000E+00   0.00000000000000E+00  -3.19822567982236E-14  -2.59114866766449E-16  -3.22413716649900E-14
     -7.14755014498941E-17
      2.48005804310975E-01
      2.48005804310975E-01   2.48005804310975E-01   0.00000000000000E+00   0.00000000000000E+00   3.27645639339224E-14
      7.67984881530724E-21   3.27645716137712E-14   7.15652586181708E-17   0.00000000000000E+00   0.00000000000000E+00
      0.00000000000000E+00   0.00000000000000E+00  -3.24998217505010E-14  -2.64749863270328E-16  -3.27645716137714E-14
     -7.15652586181709E-17
      2.57768805097172E-01
      2.57768805097172E-01   2.57768805097172E-01   0.00000000000000E+00   0.00000000000000E+00   3.32574956993029E-14
      8.34346786069859E-21   3.32575040427707E-14   7.16510796489624E-17   0.00000000000000E+00   0.00000000000000E+00
      0.00000000000000E+00   0.00000000000000E+00  -3.29875633351484E-14  -2.69940707622391E-16  -3.32575040427708E-14
     -7.16510796489624E-17
      2.67011112508105E-01
      2.67011112508105E-01   2.67011112508105E-01   0.00000000000000E+00   0.00000000000000E+00   3.37218469949984E-14
      8.34345372318044E-21   3.37218553384521E-14   7.17330838365465E-17   0.00000000000000E+00   0.00000000000000E+00
      0.00000000000000E+00   0.00000000000000E+00  -3.34471255856356E-14  -2.74729752816584E-16  -3.37218553384522E-14
     -7.17330838365464E-17
      2.84509881206138E-01
      2.84509881206138E-01   2.84509881206138E-01   0.00000000000000E+00   0.00000000000000E+00   3.45962943294958E-14
      1.47221972152736E-20   3.45963090516931E-14   7.18903628364827E-17   0.00000000000000E+00   0.00000000000000E+00
      0.00000000000000E+00   0.00000000000000E+00  -3.43128213847237E-14  -2.83487666969400E-16  -3.45963090516931E-14
     -7.18903628364827E-17
      3.00608748408329E-01
      3.00608748408329E-01   3.00608748408329E-01   0.00000000000000E+00   0.00000000000000E+00   3.53914805716847E-14
      8.26469897725859E-21   3.53914888363837E-14   7.20373814116559E-17   0.00000000000000E+00   0.00000000000000E+00
      0.00000000000000E+00   0.00000000000000E+00  -3.51003039362944E-14  -2.91184900089268E-16  -3.53914888363837E-14
     -7.20373814116559E-17
      3.15419706234344E-01
      3.15419706234344E-01   3.15419706234344E-01   0.00000000000000E+00   0.00000000000000E+00   3.61258052021341E-14
      2.64129497135212E-20   3.61258316150839E-14   7.21745937710069E-17   0.00000000000000E+00   0.00000000000000E+00
      0.00000000000000E+00   0.00000000000000E+00  -3.58278218870583E-14  -2.98009728025586E-16  -3.61258316150839E-14
     -7.21745937710068E-17
      3.29243266871959E-01
      3.29243266871959E-01   3.29243266871959E-01   0.00000000000000E+00   0.00000000000000E+00   3.67923802964364E-14
      1.09100779054881E-20   3.67923912065143E-14   7.23043412183038E-17   0.00000000000000E+00   0.00000000000000E+00
      0.00000000000000E+00   0.00000000000000E+00  -3.64882773968152E-14  -3.04113809699155E-16  -3.67923912065143E-14
     -7.23043412183037E-17
      3.42145256800399E-01
      3.42145256800399E-01   3.42145256800399E-01   0.00000000000000E+00   0.00000000000000E+00   3.74165022152263E-14
      8.33753199759256E-21   3.74165105527583E-14   7.24268980547019E-17   0.00000000000000E+00   0.00000000000000E+00
      0.00000000000000E+00   0.00000000000000E+00  -3.71068835575989E-14  -3.09626995159492E-16  -3.74165105527583E-14
     -7.24268980547020E-17
      3.54187114066943E-01
      3.54187114066943E-01   3.54187114066943E-01   0.00000000000000E+00   0.00000000000000E+00   3.79951837139307E-14
      8.33283155204144E-21   3.79951920467623E-14   7.25425502844907E-17   0.00000000000000E+00   0.00000000000000E+00
      0.00000000000000E+00   0.00000000000000E+00  -3.76805813051807E-14  -3.14610741581536E-16  -3.79951920467623E-14
     -7.25425502844908E-17
      3.65426180849051E-01
      3.65426180849051E-01   3.65426180849051E-01   0.00000000000000E+00   0.00000000000000E+00   3.85321842500488E-14
      8.34289548407040E-21   3.85321925929443E-14   7.26515907496028E-17   0.00000000000000E+00   0.00000000000000E+00
      0.00000000000000E+00   0.00000000000000E+00  -3.82130678425472E-14  -3.19124750397194E-16  -3.85321925929444E-14
     -7.26515907496028E-17
      3.75915976512351E-01
      3.75915976512351E-01   3.75915976512351E-01   0.00000000000000E+00   0.00000000000000E+00   3.90305093115346E-14
      7.68617268662619E-21   3.90305169977073E-14   7.27543151540715E-17   0.00000000000000E+00   0.00000000000000E+00
      0.00000000000000E+00   0.00000000000000E+00  -3.87072946316217E-14  -3.23222366085608E-16  -3.90305169977073E-14
     -7.27543151540716E-17
      3.85846316406943E-01
      3.85846316406943E-01   3.85846316406943E-01   0.00000000000000E+00   0.00000000000000E+00   3.94996849106315E-14
      8.34347282728172E-21   3.94996932541043E-14   7.28524060973524E-17   0.00000000000000E+00   0.00000000000000E+00
      0.00000000000000E+00   0.00000000000000E+00  -3.91726881652723E-14  -3.27005088832034E-16  -3.94996932541043E-14
     -7.28524060973523E-17
      3.95247038173822E-01
      3.95247038173822E-01   3.95247038173822E-01   0.00000000000000E+00   0.00000000000000E+00   3.99415335647477E-14
      8.34346068766300E-21   3.99415419082084E-14   7.29460204717092E-17   0.00000000000000E+00   0.00000000000000E+00
      0.00000000000000E+00   0.00000000000000E+00  -3.96110399306950E-14  -3.30501977513414E-16  -3.99415419082084E-14
     -7.29460204717092E-17
      4.13045738052448E-01
      4.13045738052448E-01   4.13045738052448E-01   0.00000000000000E+00   0.00000000000000E+00   4.07712176423188E-14
      2.03426014607649E-20   4.07712379849202E-14   7.31252666253380E-17   0.00000000000000E+00   0.00000000000000E+00
      0.00000000000000E+00   0.00000000000000E+00  -4.04343116495509E-14  -3.36926335369474E-16  -4.07712379849203E-14
     -7.31252666253379E-17
      4.29420541940783E-01
      4.29420541940783E-01   4.29420541940783E-01   0.00000000000000E+00   0.00000000000000E+00   4.15298915246477E-14
      8.38744235979794E-21   4.15298999120900E-14   7.32924770929926E-17   0.00000000000000E+00   0.00000000000000E+00
      0.00000000000000E+00   0.00000000000000E+00  -4.11873076539746E-14  -3.42592258115471E-16  -4.15298999120901E-14
     -7.32924770929927E-17
      4.44485361518052E-01
      4.44485361518052E-01   4.44485361518052E-01   0.00000000000000E+00   0.00000000000000E+00   4.22201798721354E-14
      2.63559707458007E-20   4.22202062281061E-14   7.34482501319245E-17   0.00000000000000E+00   0.00000000000000E+00
      0.00000000000000E+00   0.00000000000000E+00  -4.18725425853437E-14  -3.47663642762424E-16  -4.22202062281062E-14
     -7.34482501319244E-17
      4.58545859790170E-01
      4.58545859790170E-01   4.58545859790170E-01   0.00000000000000E+00   0.00000000000000E+00   4.28598327930077E-14
      2.40947637723943E-20   4.28598568877715E-14   7.35953066108092E-17   0.00000000000000E+00   0.00000000000000E+00
      0.00000000000000E+00   0.00000000000000E+00  -4.25076106139526E-14  -3.52246273818788E-16  -4.28598568877714E-14
     -7.35953066108091E-17
      4.71668991510812E-01
      4.71668991510812E-01   4.71668991510812E-01   0.00000000000000E+00   0.00000000000000E+00   4.34525352685257E-14
      8.34034424161003E-21   4.34525436088699E-14   7.37340056751905E-17   0.00000000000000E+00   0.00000000000000E+00
      0.00000000000000E+00   0.00000000000000E+00  -4.30961407360188E-14  -3.56402872851275E-16  -4.34525436088700E-14
     -7.37340056751908E-17
      4.83917247783413E-01
      4.83917247783413E-01   4.83917247783413E-01   0.00000000000000E+00   0.00000000000000E+00   4.40018861811798E-14
      8.33292765559273E-21   4.40018945141075E-14   7.38647124266524E-17   0.00000000000000E+00   0.00000000000000E+00
      0.00000000000000E+00   0.00000000000000E+00  -4.36416832194602E-14  -3.60211294647234E-16  -4.40018945141075E-14
     -7.38647124266523E-17
      4.95348953637839E-01
      4.95348953637839E-01   4.95348953637839E-01   0.00000000000000E+00   0.00000000000000E+00   4.45115804070117E-14
      8.34334365715637E-21   4.45115887503554E-14   7.39877934320944E-17   0.00000000000000E+00   0.00000000000000E+00
      0.00000000000000E+00   0.00000000000000E+00  -4.41478931064764E-14  -3.63695643878976E-16  -4.45115887503554E-14
     -7.39877934320946E-17
      5.06018545768638E-01
      5.06018545768638E-01   5.06018545768638E-01   0.00000000000000E+00   0.00000000000000E+00   4.49842617548650E-14
      7.37597807541525E-21   4.49842691308431E-14   7.41036131044587E-17   0.00000000000000E+00   0.00000000000000E+00
      0.00000000000000E+00   0.00000000000000E+00  -4.46173806599026E-14  -3.66888470940549E-16  -4.49842691308432E-14
     -7.41036131044587E-17
      5.16119092985793E-01
      5.16119092985793E-01   5.16119092985793E-01   0.00000000000000E+00   0.00000000000000E+00   4.54292185002004E-14
      8.32259615510957E-21   4.54292268227965E-14   7.42140924998601E-17   0.00000000000000E+00   0.00000000000000E+00
      0.00000000000000E+00   0.00000000000000E+00  -4.50593639714533E-14  -3.69862851343202E-16  -4.54292268227965E-14
     -7.42140924998600E-17
      5.25680944351367E-01
      5.25680944351367E-01   5.25680944351367E-01   0.00000000000000E+00   0.00000000000000E+00   4.58484324921059E-14
      8.34346448830733E-21   4.58484408355704E-14   7.43194269254488E-17   0.00000000000000E+00   0.00000000000000E+00
      0.00000000000000E+00   0.00000000000000E+00  -4.54758068769129E-14  -3.72633958657500E-16  -4.58484408355704E-14
     -7.43194269254492E-17
      5.43784716270188E-01
      5.43784716270188E-01   5.43784716270188E-01   0.00000000000000E+00   0.00000000000000E+00   4.66360327817889E-14
      8.29601593902364E-21   4.66360410778049E-14   7.45208420672268E-17   0.00000000000000E+00   0.00000000000000E+00
      0.00000000000000E+00   0.00000000000000E+00  -4.62582752571205E-14  -3.77765820684435E-16  -4.66360410778049E-14
     -7.45208420672269E-17
      5.60198802809918E-01
      5.60198802809918E-01   5.60198802809918E-01   0.00000000000000E+00   0.00000000000000E+00   4.73434661205893E-14
      8.31257253343932E-21   4.73434744331619E-14   7.47056889769622E-17   0.00000000000000E+00   0.00000000000000E+00
      0.00000000000000E+00   0.00000000000000E+00  -4.69611849351608E-14  -3.82289498000986E-16  -4.73434744331618E-14
     -7.47056889769620E-17
      5.75299762426470E-01
      5.75299762426470E-01   5.75299762426470E-01   0.00000000000000E+00   0.00000000000000E+00   4.79889156952222E-14
      8.73922904102479E-21   4.79889244344512E-14   7.48776107708761E-17   0.00000000000000E+00   0.00000000000000E+00
      0.00000000000000E+00   0.00000000000000E+00  -4.76025825711854E-14  -3.86341863265862E-16  -4.79889244344512E-14
     -7.48776107708763E-17
      5.89192645273698E-01
      5.89192645273698E-01   5.89192645273698E-01   0.00000000000000E+00   0.00000000000000E+00   4.85779622189818E-14
      2.22043134959665E-20   4.85779844232953E-14   7.50373468926564E-17   0.00000000000000E+00   0.00000000000000E+00
      0.00000000000000E+00   0.00000000000000E+00  -4.81879962056846E-14  -3.89988217610841E-16  -4.85779844232954E-14
     -7.50373468926564E-17
      6.02159335931111E-01
      6.02159335931111E-01   6.02159335931111E-01   0.00000000000000E+00   0.00000000000000E+00   4.91239155744384E-14
      8.33552823390860E-21   4.91239239099667E-14   7.51877829735399E-17   0.00000000000000E+00   0.00000000000000E+00
      0.00000000000000E+00   0.00000000000000E+00  -4.87306428525584E-14  -3.93281057408315E-16  -4.91239239099667E-14
     -7.51877829735399E-17
      6.14261580544696E-01
      6.14261580544696E-01   6.14261580544696E-01   0.00000000000000E+00   0.00000000000000E+00   4.96297019560149E-14
      8.33631586731725E-21   4.96297102923307E-14   7.53293596641499E-17   0.00000000000000E+00   0.00000000000000E+00
      0.00000000000000E+00   0.00000000000000E+00  -4.92334177702136E-14  -3.96292522117191E-16  -4.96297102923308E-14
     -7.53293596641499E-17
      6.25557008850709E-01
      6.25557008850709E-01   6.25557008850709E-01   0.00000000000000E+00   0.00000000000000E+00   5.00989183482997E-14
      8.27426650701433E-21   5.00989266225662E-14   7.54625123767678E-17   0.00000000000000E+00   0.00000000000000E+00
      0.00000000000000E+00   0.00000000000000E+00  -4.96998898619355E-14  -3.99036760630733E-16  -5.00989266225663E-14
     -7.54625123767677E-17
      6.36250014313734E-01
      6.36250014313734E-01   6.36250014313734E-01   0.00000000000000E+00   0.00000000000000E+00   5.05407114577272E-14
      8.27950903973428E-21   5.05407197372362E-14   7.55894624149946E-17   0.00000000000000E+00   0.00000000000000E+00
      0.00000000000000E+00   0.00000000000000E+00  -5.01391450078679E-14  -4.01574729368372E-16  -5.05407197372363E-14
     -7.55894624149947E-17
      6.46372726152065E-01
      6.46372726152065E-01   6.46372726152065E-01   0.00000000000000E+00   0.00000000000000E+00   5.09565266156691E-14
      8.32416368051269E-21   5.09565349398327E-14   7.57104441335810E-17   0.00000000000000E+00   0.00000000000000E+00
      0.00000000000000E+00   0.00000000000000E+00  -5.05526118948777E-14  -4.03923044955055E-16  -5.09565349398328E-14
     -7.57104441335809E-17
      6.55955560025684E-01
      6.55955560025684E-01   6.55955560025684E-01   0.00000000000000E+00   0.00000000000000E+00   5.13480177028485E-14
      8.34346868986383E-21   5.13480260463172E-14   7.58256898774964E-17   0.00000000000000E+00   0.00000000000000E+00
      0.00000000000000E+00   0.00000000000000E+00  -5.09419289838673E-14  -4.06097062449934E-16  -5.13480260463172E-14
     -7.58256898774965E-17
      6.74099058826405E-01
      6.74099058826405E-01   6.74099058826405E-01   0.00000000000000E+00   0.00000000000000E+00   5.20834184164985E-14
      8.28376825709309E-21   5.20834267002667E-14   7.60457880795241E-17   0.00000000000000E+00   0.00000000000000E+00
      0.00000000000000E+00   0.00000000000000E+00  -5.16733446239098E-14  -4.10082076356838E-16  -5.20834267002667E-14
     -7.60457880795240E-17
      6.90549164405724E-01
      6.90549164405724E-01   6.90549164405724E-01   0.00000000000000E+00   0.00000000000000E+00   5.27442626636662E-14
      8.31974391556307E-21   5.27442709834101E-14   7.62474809862798E-17   0.00000000000000E+00   0.00000000000000E+00
      0.00000000000000E+00   0.00000000000000E+00  -5.23307233764048E-14  -4.13547607005260E-16  -5.27442709834101E-14
     -7.62474809862795E-17
      7.05683261538698E-01
      7.05683261538698E-01   7.05683261538698E-01   0.00000000000000E+00   0.00000000000000E+00   5.33469031363400E-14
      8.52023009996915E-21   5.33469116565701E-14   7.64348225976310E-17   0.00000000000000E+00   0.00000000000000E+00
      0.00000000000000E+00   0.00000000000000E+00  -5.29302978632435E-14  -4.16613793326703E-16  -5.33469116565702E-14
     -7.64348225976310E-17
      7.19606630901034E-01
      7.19606630901034E-01   7.19606630901034E-01   0.00000000000000E+00   0.00000000000000E+00   5.38970459660906E-14
      2.28809546200751E-20   5.38970688470452E-14   7.66086784178573E-17   0.00000000000000E+00   0.00000000000000E+00
      0.00000000000000E+00   0.00000000000000E+00  -5.34777211649962E-14  -4.19347682049005E-16  -5.38970688470452E-14
     -7.66086784178573E-17
      7.32601775639214E-01
      7.32601775639214E-01   7.32601775639214E-01   0.00000000000000E+00   0.00000000000000E+00   5.44068684878296E-14
      8.33492084970243E-21   5.44068768227504E-14   7.67722352865207E-17   0.00000000000000E+00   0.00000000000000E+00
      0.00000000000000E+00   0.00000000000000E+00  -5.39850904647316E-14  -4.21786358018844E-16  -5.44068768227504E-14
     -7.67722352865207E-17
      7.44730577394849E-01
      7.44730577394849E-01   7.44730577394849E-01   0.00000000000000E+00   0.00000000000000E+00   5.48794976222586E-14
      8.32745289755963E-21   5.48795059497115E-14   7.69260078165857E-17   0.00000000000000E+00   0.00000000000000E+00
      0.00000000000000E+00   0.00000000000000E+00  -5.44555015241415E-14  -4.24004425569984E-16  -5.48795059497115E-14
     -7.69260078165857E-17
      7.56050792366775E-01
      7.56050792366775E-01   7.56050792366775E-01   0.00000000000000E+00   0.00000000000000E+00   5.53177821692649E-14
      8.25758583410534E-21   5.53177904268508E-14   7.70704995139869E-17   0.00000000000000E+00   0.00000000000000E+00
      0.00000000000000E+00   0.00000000000000E+00  -5.48917759606485E-14  -4.26014466202212E-16  -5.53177904268507E-14
     -7.70704995139871E-17
      7.66767262540199E-01
      7.66767262540199E-01   7.66767262540199E-01   0.00000000000000E+00   0.00000000000000E+00   5.57303677538448E-14
      8.31078090070761E-21   5.57303760646257E-14   7.72081447905399E-17   0.00000000000000E+00   0.00000000000000E+00
      0.00000000000000E+00   0.00000000000000E+00  -5.53025100249863E-14  -4.27866039639371E-16  -5.57303760646257E-14
     -7.72081447905398E-17
      7.76912187637706E-01
      7.76912187637706E-01   7.76912187637706E-01   0.00000000000000E+00   0.00000000000000E+00   5.61185953328117E-14
      8.32810155995420E-21   5.61186036609132E-14   7.73392163545636E-17   0.00000000000000E+00   0.00000000000000E+00
      0.00000000000000E+00   0.00000000000000E+00  -5.56890289982720E-14  -4.29574662641204E-16  -5.61186036609132E-14
     -7.73392163545637E-17
      7.86516050063346E-01
      7.86516050063346E-01   7.86516050063346E-01   0.00000000000000E+00   0.00000000000000E+00   5.64843958919214E-14
      8.34347337917503E-21   5.64844042353948E-14   7.74639824468169E-17   0.00000000000000E+00   0.00000000000000E+00
      0.00000000000000E+00   0.00000000000000E+00  -5.60532499838455E-14  -4.31154251549296E-16  -5.64844042353948E-14
     -7.74639824468168E-17
      8.04699362922558E-01
      8.04699362922558E-01   8.04699362922558E-01   0.00000000000000E+00   0.00000000000000E+00   5.71715533940249E-14
      8.18681539041423E-21   5.71715615808403E-14   7.77020221923372E-17   0.00000000000000E+00   0.00000000000000E+00
      0.00000000000000E+00   0.00000000000000E+00  -5.67375120319299E-14  -4.34049548910344E-16  -5.71715615808403E-14
     -7.77020221923372E-17
      8.21185566581577E-01
      8.21185566581577E-01   8.21185566581577E-01   0.00000000000000E+00   0.00000000000000E+00   5.77891401678301E-14
      8.32735917522510E-21   5.77891484951893E-14   7.79198873778144E-17   0.00000000000000E+00   0.00000000000000E+00
      0.00000000000000E+00   0.00000000000000E+00  -5.73525734555131E-14  -4.36575039676136E-16  -5.77891484951893E-14
     -7.79198873778146E-17
      8.36352873947875E-01
      8.36352873947875E-01   8.36352873947875E-01   0.00000000000000E+00   0.00000000000000E+00   5.83523858586684E-14
      8.37446404786180E-21   5.83523942331324E-14   7.81220278397339E-17   0.00000000000000E+00   0.00000000000000E+00
      0.00000000000000E+00   0.00000000000000E+00  -5.79135722030121E-14  -4.38822030120291E-16  -5.83523942331323E-14
     -7.81220278397340E-17
      8.50306796724869E-01
      8.50306796724869E-01   8.50306796724869E-01   0.00000000000000E+00   0.00000000000000E+00   5.88667138218702E-14
      2.35402846866695E-20   5.88667373621549E-14   7.83094311300192E-17   0.00000000000000E+00   0.00000000000000E+00
      0.00000000000000E+00   0.00000000000000E+00  -5.84258918310541E-14  -4.40845531100734E-16  -5.88667373621549E-14
     -7.83094311300192E-17
      8.63330457983396E-01
      8.63330457983396E-01   8.63330457983396E-01   0.00000000000000E+00   0.00000000000000E+00   5.93431012204440E-14
      8.34970692468151E-21   5.93431095701509E-14   7.84855739207971E-17   0.00000000000000E+00   0.00000000000000E+00
      0.00000000000000E+00   0.00000000000000E+00  -5.89004511312528E-14  -4.42658438898038E-16  -5.93431095701509E-14
     -7.84855739207972E-17
      8.75312226341242E-01
      8.75312226341242E-01   8.75312226341242E-01   0.00000000000000E+00   0.00000000000000E+00   5.97560360783588E-14
      8.37185749966851E-21   5.97560444502163E-14   7.86486713440370E-17   0.00000000000000E+00   0.00000000000000E+00
      0.00000000000000E+00   0.00000000000000E+00  -5.93117401597216E-14  -4.44304290494743E-16  -5.97560444502163E-14
     -7.86486713440370E-17
      8.86654967053335E-01
      8.86654967053335E-01   8.86654967053335E-01   0.00000000000000E+00   0.00000000000000E+00   6.01887630138693E-14
      8.24220704535251E-21   6.01887712560763E-14   7.88039894694146E-17   0.00000000000000E+00   0.00000000000000E+00
      0.00000000000000E+00   0.00000000000000E+00  -5.97429380800510E-14  -4.45833176025387E-16  -6.01887712560764E-14
     -7.88039894694148E-17
      8.97392761594117E-01