DF-ISE text

Info {
  version   = 1.0
  type      = xyplot
  datasets  = [
    "time"
    "top OuterVoltage" "top InnerVoltage" "top QuasiFermiPotential" "top DisplacementCurrent" "top eCurrent"
    "top hCurrent" "top TotalCurrent" "top Charge" "bottom OuterVoltage" "bottom InnerVoltage"
    "bottom QuasiFermiPotential" "bottom DisplacementCurrent" "bottom eCurrent" "bottom hCurrent" "bottom TotalCurrent"
    "bottom Charge" ]
  functions = [
    Time
    OuterVoltage InnerVoltage QuasiFermiPotential DisplacementCurrent eCurrent
    hCurrent TotalCurrent Charge OuterVoltage InnerVoltage
    QuasiFermiPotential DisplacementCurrent eCurrent hCurrent TotalCurrent
    Charge ]
}

Data {
      0.00000000000000E+00
      0.00000000000000E+00   0.00000000000000E+00   0.00000000000000E+00   0.00000000000000E+00   8.28916597473946E-23
     -7.88727932937253E-30   8.28916518601152E-23   3.44693531630934E-17   0.00000000000000E+00   0.00000000000000E+00
      0.00000000000000E+00   0.00000000000000E+00  -8.28916596170684E-23   7.75695341395925E-30  -8.28916518601150E-23
     -3.44693531630933E-17
      0.00000000000000E+00
      0.00000000000000E+00   0.00000000000000E+00   0.00000000000000E+00   0.00000000000000E+00   7.47449382438662E-22
      2.37802047564397E-31   7.47449382676464E-22   3.44703004276819E-17   0.00000000000000E+00   0.00000000000000E+00
      0.00000000000000E+00   0.00000000000000E+00  -7.47449382578889E-22  -9.75733669529369E-32  -7.47449382676463E-22
     -3.44703004276820E-17
      1.00000000000000E-02
      1.00000000000000E-02   1.00000000000000E-02   0.00000000000000E+00   0.00000000000000E+00   5.83070704091495E-15
      5.57033966622537E-19   5.83126407488157E-15   3.45939833817267E-17   0.00000000000000E+00   0.00000000000000E+00
      0.00000000000000E+00   0.00000000000000E+00  -5.80092649450838E-15  -3.03375803731978E-17  -5.83126407488158E-15
     -3.45939833817267E-17
      2.89333333333333E-02
      2.89333333333333E-02   2.89333333333333E-02   0.00000000000000E+00   0.00000000000000E+00   1.28689097947684E-14
      1.12403051476760E-18   1.28700338252832E-14   3.48318750893339E-17   0.00000000000000E+00   0.00000000000000E+00
      0.00000000000000E+00   0.00000000000000E+00  -1.27947382302702E-14  -7.52955950129911E-17  -1.28700338252832E-14
     -3.48318750893340E-17
      6.42755555555556E-02
      6.42755555555556E-02   6.42755555555556E-02   0.00000000000000E+00   0.00000000000000E+00   1.90717423464727E-14
      1.45117838726718E-18   1.90731935248600E-14   3.52887851536243E-17   0.00000000000000E+00   0.00000000000000E+00
      0.00000000000000E+00   0.00000000000000E+00  -1.89403969792086E-14  -1.32796545651450E-16  -1.90731935248600E-14
     -3.52887851536242E-17
      1.14275555555556E-01
      1.14275555555556E-01   1.14275555555556E-01   0.00000000000000E+00   0.00000000000000E+00   2.29125191052102E-14
      1.50172261091280E-18   2.29140208278211E-14   3.59630318328215E-17   0.00000000000000E+00   0.00000000000000E+00
      0.00000000000000E+00   0.00000000000000E+00  -2.27268719476148E-14  -1.87148880206390E-16  -2.29140208278212E-14
     -3.59630318328216E-17
      1.64275555555556E-01
      1.64275555555556E-01   1.64275555555556E-01   0.00000000000000E+00   0.00000000000000E+00   2.55925861598031E-14
      1.51085352982303E-18   2.55940970133329E-14   3.66686445821654E-17   0.00000000000000E+00   0.00000000000000E+00
      0.00000000000000E+00   0.00000000000000E+00  -2.53656317623050E-14  -2.28465251027913E-16  -2.55940970133329E-14
     -3.66686445821653E-17
      2.14275555555556E-01
      2.14275555555556E-01   2.14275555555556E-01   0.00000000000000E+00   0.00000000000000E+00   2.80865278098317E-14
      1.51434609363364E-18   2.80880421559254E-14   3.74041415255331E-17   0.00000000000000E+00   0.00000000000000E+00
      0.00000000000000E+00   0.00000000000000E+00  -2.78250773012803E-14  -2.62964854645114E-16  -2.80880421559254E-14
     -3.74041415255331E-17
      2.64275555555556E-01
      2.64275555555556E-01   2.64275555555556E-01   0.00000000000000E+00   0.00000000000000E+00   3.05174966871017E-14
      1.50093953761140E-18   3.05189976266393E-14   3.81680078453267E-17   0.00000000000000E+00   0.00000000000000E+00
      0.00000000000000E+00   0.00000000000000E+00  -3.02263440264002E-14  -2.92653600239121E-16  -3.05189976266393E-14
     -3.81680078453267E-17
      3.14275555555556E-01
      3.14275555555556E-01   3.14275555555556E-01   0.00000000000000E+00   0.00000000000000E+00   3.28977669007225E-14
      1.63703775746326E-18   3.28994039384800E-14   3.89587383696911E-17   0.00000000000000E+00   0.00000000000000E+00
      0.00000000000000E+00   0.00000000000000E+00  -3.25806785100052E-14  -3.18725428474839E-16  -3.28994039384800E-14
     -3.89587383696911E-17
      3.64275555555556E-01
      3.64275555555556E-01   3.64275555555556E-01   0.00000000000000E+00   0.00000000000000E+00   3.52260975569635E-14
      1.61110423585872E-18   3.52277086611994E-14   3.97748628475430E-17   0.00000000000000E+00   0.00000000000000E+00
      0.00000000000000E+00   0.00000000000000E+00  -3.48861132477551E-14  -3.41595413444264E-16  -3.52277086611994E-14
     -3.97748628475430E-17
      4.14275555555556E-01
      4.14275555555556E-01   4.14275555555556E-01   0.00000000000000E+00   0.00000000000000E+00   3.74966483730785E-14
      1.80312957513207E-18   3.74984515026536E-14   4.06149611675108E-17   0.00000000000000E+00   0.00000000000000E+00
      0.00000000000000E+00   0.00000000000000E+00  -3.71363591374263E-14  -3.62092365227291E-16  -3.74984515026536E-14
     -4.06149611675109E-17
      4.64275555555555E-01
      4.64275555555555E-01   4.64275555555555E-01   0.00000000000000E+00   0.00000000000000E+00   3.97130522967430E-14
      1.70147854040496E-18   3.97147537752834E-14   4.14776725138788E-17   0.00000000000000E+00   0.00000000000000E+00
      0.00000000000000E+00   0.00000000000000E+00  -3.93347343898319E-14  -3.80019385451453E-16  -3.97147537752834E-14
     -4.14776725138789E-17
      5.14275555555555E-01
      5.14275555555555E-01   5.14275555555555E-01   0.00000000000000E+00   0.00000000000000E+00   4.18765369441683E-14
      2.05599833301885E-18   4.18785929425013E-14   4.23617007070808E-17   0.00000000000000E+00   0.00000000000000E+00
      0.00000000000000E+00   0.00000000000000E+00  -4.14820772260497E-14  -3.96515716451579E-16  -4.18785929425013E-14
     -4.23617007070808E-17
      5.64275555555556E-01
      5.64275555555556E-01   5.64275555555556E-01   0.00000000000000E+00   0.00000000000000E+00   4.39873257239898E-14
      1.93984680526019E-18   4.39892655707950E-14   4.32658170327104E-17   0.00000000000000E+00   0.00000000000000E+00
      0.00000000000000E+00   0.00000000000000E+00  -4.35781672917845E-14  -4.11098279010526E-16  -4.39892655707950E-14
     -4.32658170327104E-17
      6.14275555555556E-01
      6.14275555555556E-01   6.14275555555556E-01   0.00000000000000E+00   0.00000000000000E+00   4.60464926950312E-14
      1.87195148337356E-18   4.60483646465146E-14   4.41888613429364E-17   0.00000000000000E+00   0.00000000000000E+00
      0.00000000000000E+00   0.00000000000000E+00  -4.56237427910048E-14  -4.24621855509705E-16  -4.60483646465145E-14
     -4.41888613429363E-17
      6.64275555555556E-01
      6.64275555555556E-01   6.64275555555556E-01   0.00000000000000E+00   0.00000000000000E+00   4.80547853951243E-14
      1.83340485323539E-18   4.80566187999776E-14   4.51297419265697E-17   0.00000000000000E+00   0.00000000000000E+00
      0.00000000000000E+00   0.00000000000000E+00  -4.76194160675797E-14  -4.37202732397863E-16  -4.80566187999776E-14
     -4.51297419265697E-17
      7.14275555555556E-01
      7.14275555555556E-01   7.14275555555556E-01   0.00000000000000E+00   0.00000000000000E+00   5.00131468245573E-14
      1.23909683466554E-18   5.00143859213919E-14   4.60874344757666E-17   0.00000000000000E+00   0.00000000000000E+00
      0.00000000000000E+00   0.00000000000000E+00  -4.95661560877297E-14  -4.48229833662255E-16  -5.00143859213920E-14
     -4.60874344757666E-17
      7.64275555555556E-01
      7.64275555555556E-01   7.64275555555556E-01   0.00000000000000E+00   0.00000000000000E+00   5.19228673452955E-14
      1.52139733779788E-18   5.19243887426333E-14   4.70609803797159E-17   0.00000000000000E+00   0.00000000000000E+00
      0.00000000000000E+00   0.00000000000000E+00  -5.14653293906665E-14  -4.59059351966842E-16  -5.19243887426333E-14
     -4.70609803797158E-17
      8.14275555555556E-01
      8.14275555555556E-01   8.14275555555556E-01   0.00000000000000E+00   0.00000000000000E+00   5.37850765132963E-14
      1.37580544936435E-18   5.37864523187457E-14   4.80494845170392E-17   0.00000000000000E+00   0.00000000000000E+00
      0.00000000000000E+00   0.00000000000000E+00  -5.33180933571087E-14  -4.68358961637108E-16  -5.37864523187458E-14
     -4.80494845170391E-17
      8.64275555555556E-01
      8.64275555555556E-01   8.64275555555556E-01   0.00000000000000E+00   0.00000000000000E+00   5.56011353287441E-14
      1.45901846563677E-18   5.56025943472097E-14   4.90521126747844E-17   0.00000000000000E+00   0.00000000000000E+00
      0.00000000000000E+00   0.00000000000000E+00  -5.51257479177428E-14  -4.76846429466930E-16  -5.56025943472097E-14
     -4.90521126747844E-17
      9.14275555555556E-01
      9.14275555555556E-01   9.14275555555556E-01   0.00000000000000E+00   0.00000000000000E+00   5.73724763099377E-14
      1.41499562412868E-18   5.73738913055618E-14   5.00680887009384E-17   0.00000000000000E+00   0.00000000000000E+00
      0.00000000000000E+00   0.00000000000000E+00  -5.68895879545106E-14  -4.84303351051140E-16  -5.73738913055617E-14
     -5.00680887009385E-17
      9.64275555555556E-01
      9.64275555555556E-01   9.64275555555556E-01   0.00000000000000E+00   0.00000000000000E+00   5.91005923860032E-14
      1.39932153742365E-18   5.91019917075406E-14   5.10966914735541E-17   0.00000000000000E+00   0.00000000000000E+00
      0.00000000000000E+00   0.00000000000000E+00  -5.86109282760264E-14  -4.91063431514108E-16  -5.91019917075405E-14
     -5.10966914735540E-17
      1.00000000000000E+00
      1.00000000000000E+00   1.00000000000000E+00   0.00000000000000E+00   0.00000000000000E+00   6.03096607650352E-14
      1.41544237976039E-18   6.03110762074149E-14   5.18389776526782E-17   0.00000000000000E+00   0.00000000000000E+00
      0.00000000000000E+00   0.00000000000000E+00  -5.98154971460167E-14  -4.95579061398229E-16  -6.03110762074149E-14
     -5.18389776526784E-17
}
