DF-ISE text

Info {
  version   = 1.0
  type      = xyplot
  datasets  = [
    "time"
    "top OuterVoltage" "top InnerVoltage" "top QuasiFermiPotential" "top DisplacementCurrent" "top eCurrent"
    "top hCurrent" "top TotalCurrent" "top Charge" "bottom OuterVoltage" "bottom InnerVoltage"
    "bottom QuasiFermiPotential" "bottom DisplacementCurrent" "bottom eCurrent" "bottom hCurrent" "bottom TotalCurrent"
    "bottom Charge" ]
  functions = [
    Time
    OuterVoltage InnerVoltage QuasiFermiPotential DisplacementCurrent eCurrent
    hCurrent TotalCurrent Charge OuterVoltage InnerVoltage
    QuasiFermiPotential DisplacementCurrent eCurrent hCurrent TotalCurrent
    Charge ]
}

Data {
      0.00000000000000E+00
      0.00000000000000E+00   0.00000000000000E+00   0.00000000000000E+00   0.00000000000000E+00  -1.94211193710354E-21
     -2.70190503531041E-31  -1.94211193737373E-21   4.15610993849021E-17   0.00000000000000E+00   0.00000000000000E+00
      0.00000000000000E+00   0.00000000000000E+00   1.94211193696595E-21   4.07778052338513E-31   1.94211193737373E-21
     -4.15610993849021E-17
      0.00000000000000E+00
      0.00000000000000E+00   0.00000000000000E+00   0.00000000000000E+00   0.00000000000000E+00  -5.01470745112136E-21
     -4.51410501088748E-31  -5.01470745157277E-21   4.15610995596522E-17   0.00000000000000E+00   0.00000000000000E+00
      0.00000000000000E+00   0.00000000000000E+00   5.01470745216414E-21  -5.91387419515044E-31   5.01470745157275E-21
     -4.15610995596522E-17
      1.00000000000000E-02
      1.00000000000000E-02   1.00000000000000E-02   0.00000000000000E+00   0.00000000000000E+00   6.13013901039974E-15
      2.28897985630907E-20   6.13016190019830E-15   4.16999734309368E-17   0.00000000000000E+00   0.00000000000000E+00
      0.00000000000000E+00   0.00000000000000E+00  -6.10096954049781E-15  -2.91923597004889E-17  -6.13016190019830E-15
     -4.16999734309368E-17
      2.89333333333333E-02
      2.89333333333333E-02   2.89333333333333E-02   0.00000000000000E+00   0.00000000000000E+00   1.35174971070913E-14
      4.76138223975174E-20   1.35175447209137E-14   4.19666162993086E-17   0.00000000000000E+00   0.00000000000000E+00
      0.00000000000000E+00   0.00000000000000E+00  -1.34448816924460E-14  -7.26630284677331E-17  -1.35175447209137E-14
     -4.19666162993086E-17
      4.63520000000000E-02
      4.63520000000000E-02   4.63520000000000E-02   0.00000000000000E+00   0.00000000000000E+00   1.74527254356454E-14
      6.52383168528006E-20   1.74527906739622E-14   4.22161381477320E-17   0.00000000000000E+00   0.00000000000000E+00
      0.00000000000000E+00   0.00000000000000E+00  -1.73495704500878E-14  -1.03220223874401E-16  -1.74527906739622E-14
     -4.22161381477320E-17
      6.23771733333333E-02
      6.23771733333333E-02   6.23771733333333E-02   0.00000000000000E+00   0.00000000000000E+00   1.97778994477960E-14
      6.37749554129900E-20   1.97779632227514E-14   4.24491862182633E-17   0.00000000000000E+00   0.00000000000000E+00
      0.00000000000000E+00   0.00000000000000E+00  -1.96518787079083E-14  -1.26084514843063E-16  -1.97779632227514E-14
     -4.24491862182633E-17
      7.71203328000000E-02
      7.71203328000000E-02   7.71203328000000E-02   0.00000000000000E+00   0.00000000000000E+00   2.13050180243694E-14
      6.41288094171478E-20   2.13050821531788E-14   4.26664818915472E-17   0.00000000000000E+00   0.00000000000000E+00
      0.00000000000000E+00   0.00000000000000E+00  -2.11609897251890E-14  -1.44092427989875E-16  -2.13050821531789E-14
     -4.26664818915471E-17
      9.06840395093333E-02
      9.06840395093333E-02   9.06840395093333E-02   0.00000000000000E+00   0.00000000000000E+00   2.24101286553621E-14
      6.75542005095406E-20   2.24101962095626E-14   4.28687930568528E-17   0.00000000000000E+00   0.00000000000000E+00
      0.00000000000000E+00   0.00000000000000E+00  -2.22513719917113E-14  -1.58824217851215E-16  -2.24101962095626E-14
     -4.28687930568527E-17
      1.03343499104711E-01
      1.03343499104711E-01   1.03343499104711E-01   0.00000000000000E+00   0.00000000000000E+00   2.32868661552220E-14
      6.81099205817653E-20   2.32869342651426E-14   4.30596523061828E-17   0.00000000000000E+00   0.00000000000000E+00
      0.00000000000000E+00   0.00000000000000E+00  -2.31155582721757E-14  -1.71375992966865E-16  -2.32869342651426E-14
     -4.30596523061828E-17
      1.26974490349416E-01
      1.26974490349416E-01   1.26974490349416E-01   0.00000000000000E+00   0.00000000000000E+00   2.47077778714119E-14
      6.86541053716916E-20   2.47078465255173E-14   4.34210583675368E-17   0.00000000000000E+00   0.00000000000000E+00
      0.00000000000000E+00   0.00000000000000E+00  -2.45153223892416E-14  -1.92524136275722E-16  -2.47078465255173E-14
     -4.34210583675367E-17
      1.45249123578655E-01
      1.45249123578655E-01   1.45249123578655E-01   0.00000000000000E+00   0.00000000000000E+00   2.57097087877571E-14
      6.88045244291867E-20   2.57097775922815E-14   4.37050116473085E-17   0.00000000000000E+00   0.00000000000000E+00
      0.00000000000000E+00   0.00000000000000E+00  -2.55024335408619E-14  -2.07344051419587E-16  -2.57097775922815E-14
     -4.37050116473085E-17
      1.62061786149555E-01
      1.62061786149555E-01   1.62061786149555E-01   0.00000000000000E+00   0.00000000000000E+00   2.65958635764069E-14
     -8.83251508378058E-20   2.65957752512560E-14   4.39695898732163E-17   0.00000000000000E+00   0.00000000000000E+00
      0.00000000000000E+00   0.00000000000000E+00  -2.63758730917861E-14  -2.19902159470003E-16  -2.65957752512561E-14
     -4.39695898732163E-17
      1.77753604549061E-01
      1.77753604549061E-01   1.77753604549061E-01   0.00000000000000E+00   0.00000000000000E+00   2.74062125019878E-14
      5.20018657758382E-20   2.74062645038535E-14   4.42193452068047E-17   0.00000000000000E+00   0.00000000000000E+00
      0.00000000000000E+00   0.00000000000000E+00  -2.71750251622337E-14  -2.31239341619764E-16  -2.74062645038535E-14
     -4.42193452068049E-17
      1.92399301721933E-01
      1.92399301721933E-01   1.92399301721933E-01   0.00000000000000E+00   0.00000000000000E+00   2.81526501784591E-14
     -6.24793409267472E-20   2.81525876991181E-14   4.44548443847705E-17   0.00000000000000E+00   0.00000000000000E+00
      0.00000000000000E+00   0.00000000000000E+00  -2.79115240702763E-14  -2.41063628841851E-16  -2.81525876991181E-14
     -4.44548443847705E-17
      2.06068619083281E-01
      2.06068619083281E-01   2.06068619083281E-01   0.00000000000000E+00   0.00000000000000E+00   2.88429537887550E-14
      4.78546630346047E-20   2.88430016434181E-14   4.46766822575697E-17   0.00000000000000E+00   0.00000000000000E+00
      0.00000000000000E+00   0.00000000000000E+00  -2.85929640789994E-14  -2.50037564418686E-16  -2.88430016434181E-14
     -4.46766822575697E-17
      2.18826648620539E-01
      2.18826648620539E-01   2.18826648620539E-01   0.00000000000000E+00   0.00000000000000E+00   2.94826790900382E-14
      6.88919767060712E-20   2.94827479820149E-14   4.48854691632249E-17   0.00000000000000E+00   0.00000000000000E+00
      0.00000000000000E+00   0.00000000000000E+00  -2.92247406019607E-14  -2.58007380054155E-16  -2.94827479820149E-14
     -4.48854691632249E-17
      2.30734142855313E-01
      2.30734142855313E-01   2.30734142855313E-01   0.00000000000000E+00   0.00000000000000E+00   3.00761130131988E-14
      6.89014924629059E-20   3.00761819146912E-14   4.50818209497655E-17   0.00000000000000E+00   0.00000000000000E+00
      0.00000000000000E+00   0.00000000000000E+00  -2.98110215542333E-14  -2.65160360457884E-16  -3.00761819146912E-14
     -4.50818209497654E-17
      2.52961465426891E-01
      2.52961465426891E-01   2.52961465426891E-01   0.00000000000000E+00   0.00000000000000E+00   3.11750496894370E-14
      5.95196300697215E-21   3.11750556414000E-14   4.54520842399930E-17   0.00000000000000E+00   0.00000000000000E+00
      0.00000000000000E+00   0.00000000000000E+00  -3.08972406196173E-14  -2.77815021782705E-16  -3.11750556414000E-14
     -4.54520842399930E-17
      2.72817873590834E-01
      2.72817873590834E-01   2.72817873590834E-01   0.00000000000000E+00   0.00000000000000E+00   3.21472942191607E-14
      5.36060478922836E-20   3.21473478252086E-14   4.57868555234877E-17   0.00000000000000E+00   0.00000000000000E+00
      0.00000000000000E+00   0.00000000000000E+00  -3.18587638778733E-14  -2.88583947335323E-16  -3.21473478252086E-14
     -4.57868555234877E-17
      2.90821016992809E-01
      2.90821016992809E-01   2.90821016992809E-01   0.00000000000000E+00   0.00000000000000E+00   3.30280079372308E-14
      7.58112137331530E-20   3.30280837484445E-14   4.60935433236516E-17   0.00000000000000E+00   0.00000000000000E+00
      0.00000000000000E+00   0.00000000000000E+00  -3.27302316845670E-14  -2.97852063877409E-16  -3.30280837484444E-14
     -4.60935433236516E-17
      3.07623950834652E-01
      3.07623950834652E-01   3.07623950834652E-01   0.00000000000000E+00   0.00000000000000E+00   3.38384408442232E-14
      7.39411976890803E-20   3.38385147854209E-14   4.63824200490424E-17   0.00000000000000E+00   0.00000000000000E+00
      0.00000000000000E+00   0.00000000000000E+00  -3.35324115868624E-14  -3.06103198558475E-16  -3.38385147854208E-14
     -4.63824200490425E-17
      3.23306689087040E-01
      3.23306689087040E-01   3.23306689087040E-01   0.00000000000000E+00   0.00000000000000E+00   3.45794906736973E-14
      5.10656413074773E-20   3.45795417393386E-14   4.66542721783878E-17   0.00000000000000E+00   0.00000000000000E+00
      0.00000000000000E+00   0.00000000000000E+00  -3.42660665851882E-14  -3.13475154150368E-16  -3.45795417393386E-14
     -4.66542721783878E-17
      3.37943911455934E-01
      3.37943911455934E-01   3.37943911455934E-01   0.00000000000000E+00   0.00000000000000E+00   3.52733766813352E-14
     -3.08202849858401E-20   3.52733458610502E-14   4.69098981447747E-17   0.00000000000000E+00   0.00000000000000E+00
      0.00000000000000E+00   0.00000000000000E+00  -3.49533031361313E-14  -3.20042724918882E-16  -3.52733458610502E-14
     -4.69098981447747E-17
      3.51605319000236E-01
      3.51605319000236E-01   3.51605319000236E-01   0.00000000000000E+00   0.00000000000000E+00   3.59168153494226E-14
      3.00779643720860E-20   3.59168454273870E-14   4.71500965672970E-17   0.00000000000000E+00   0.00000000000000E+00
      0.00000000000000E+00   0.00000000000000E+00  -3.55907543090217E-14  -3.26091118365291E-16  -3.59168454273870E-14
     -4.71500965672970E-17
      3.64173813940994E-01
      3.64173813940994E-01   3.64173813940994E-01   0.00000000000000E+00   0.00000000000000E+00   3.65049979979320E-14
      1.20824055323606E-21   3.65049992061726E-14   4.73724257348908E-17   0.00000000000000E+00   0.00000000000000E+00
      0.00000000000000E+00   0.00000000000000E+00  -3.61736031039276E-14  -3.31396102244979E-16  -3.65049992061726E-14
     -4.73724257348908E-17
      3.75736829286491E-01
      3.75736829286491E-01   3.75736829286491E-01   0.00000000000000E+00   0.00000000000000E+00   3.70429035754661E-14
      7.31687483373258E-20   3.70429767442144E-14   4.75780854736709E-17   0.00000000000000E+00   0.00000000000000E+00
      0.00000000000000E+00   0.00000000000000E+00  -3.67067463289250E-14  -3.36230415289355E-16  -3.70429767442143E-14
     -4.75780854736708E-17
      3.97321124598085E-01
      3.97321124598085E-01   3.97321124598085E-01   0.00000000000000E+00   0.00000000000000E+00   3.80393897146705E-14
      7.64859868570007E-20   3.80394662006573E-14   4.79647783075841E-17   0.00000000000000E+00   0.00000000000000E+00
      0.00000000000000E+00   0.00000000000000E+00  -3.76946986049763E-14  -3.44767595680963E-16  -3.80394662006573E-14
     -4.79647783075841E-17
      4.17178676284752E-01
      4.17178676284752E-01   4.17178676284752E-01   0.00000000000000E+00   0.00000000000000E+00   3.89455093689411E-14
      6.87412162775573E-20   3.89455781101573E-14   4.83236605100187E-17   0.00000000000000E+00   0.00000000000000E+00
      0.00000000000000E+00   0.00000000000000E+00  -3.85933557247927E-14  -3.52222385364523E-16  -3.89455781101572E-14
     -4.83236605100187E-17
      4.35447623836485E-01
      4.35447623836485E-01   4.35447623836485E-01   0.00000000000000E+00   0.00000000000000E+00   3.97716750821283E-14
      6.88720330645097E-20   3.97717439541614E-14   4.86563941348601E-17   0.00000000000000E+00   0.00000000000000E+00
      0.00000000000000E+00   0.00000000000000E+00  -3.94129611160934E-14  -3.58782838068041E-16  -3.97717439541614E-14
     -4.86563941348602E-17
      4.52255055584080E-01
      4.52255055584080E-01   4.52255055584080E-01   0.00000000000000E+00   0.00000000000000E+00   4.05279912914256E-14
      8.46554254305497E-20   4.05280759468510E-14   4.89646152385841E-17   0.00000000000000E+00   0.00000000000000E+00
      0.00000000000000E+00   0.00000000000000E+00  -4.01634794052168E-14  -3.64596541634269E-16  -4.05280759468510E-14
     -4.89646152385843E-17
      4.67941991881835E-01
      4.67941991881835E-01   4.67941991881835E-01   0.00000000000000E+00   0.00000000000000E+00   4.12251065478840E-14
      7.50090401239328E-20   4.12251815569241E-14   4.92540611306124E-17   0.00000000000000E+00   0.00000000000000E+00
      0.00000000000000E+00   0.00000000000000E+00  -4.08553710760916E-14  -3.69810480832500E-16  -4.12251815569241E-14
     -4.92540611306124E-17
      4.82583132426407E-01
      4.82583132426407E-01   4.82583132426407E-01   0.00000000000000E+00   0.00000000000000E+00   4.18682456757788E-14
     -3.37780412335869E-20   4.18682118977376E-14   4.95257171760621E-17   0.00000000000000E+00   0.00000000000000E+00
      0.00000000000000E+00   0.00000000000000E+00  -4.14937813340799E-14  -3.74430563657660E-16  -4.18682118977376E-14
     -4.95257171760621E-17
      4.96248196934673E-01
      4.96248196934673E-01   4.96248196934673E-01   0.00000000000000E+00   0.00000000000000E+00   4.24666910730644E-14
      6.99334304343620E-19   4.24673904073687E-14   4.97805453116668E-17   0.00000000000000E+00   0.00000000000000E+00
      0.00000000000000E+00   0.00000000000000E+00  -4.20879372082348E-14  -3.79453199134044E-16  -4.24673904073688E-14
     -4.97805453116669E-17
      5.09002257142389E-01
      5.09002257142389E-01   5.09002257142389E-01   0.00000000000000E+00   0.00000000000000E+00   4.30214788014646E-14
      1.63793492193165E-22   4.30214789652581E-14   5.00194784553794E-17   0.00000000000000E+00   0.00000000000000E+00
      0.00000000000000E+00   0.00000000000000E+00  -4.26388146276208E-14  -3.82664337637326E-16  -4.30214789652581E-14
     -5.00194784553795E-17
      5.20735992533487E-01
      5.20735992533487E-01   5.20735992533487E-01   0.00000000000000E+00   0.00000000000000E+00   4.35286941956769E-14
      7.63621743384646E-19   4.35294578174203E-14   5.02402112008646E-17   0.00000000000000E+00   0.00000000000000E+00
      0.00000000000000E+00   0.00000000000000E+00  -4.31425026336096E-14  -3.86955183810694E-16  -4.35294578174203E-14
     -5.02402112008646E-17
      5.31687478898512E-01
      5.31687478898512E-01   5.31687478898512E-01   0.00000000000000E+00   0.00000000000000E+00   4.39993026518465E-14
     -3.03017667541456E-20   4.39992723500797E-14   5.04470045943894E-17   0.00000000000000E+00   0.00000000000000E+00
      0.00000000000000E+00   0.00000000000000E+00  -4.36098897381425E-14  -3.89382611937288E-16  -4.39992723500798E-14
     -5.04470045943894E-17
      5.51838213810159E-01
      5.51838213810159E-01   5.51838213810159E-01   0.00000000000000E+00   0.00000000000000E+00   4.48583496080641E-14
      6.89060853761652E-20   4.48584185141495E-14   5.08294199507030E-17   0.00000000000000E+00   0.00000000000000E+00
      0.00000000000000E+00   0.00000000000000E+00  -4.44631458220814E-14  -3.95272692068087E-16  -4.48584185141495E-14
     -5.08294199507029E-17
      5.69302184066919E-01
      5.69302184066919E-01   5.69302184066919E-01   0.00000000000000E+00   0.00000000000000E+00   4.55957387650868E-14
      6.86652282040285E-20   4.55958074303150E-14   5.11628052533869E-17   0.00000000000000E+00   0.00000000000000E+00
      0.00000000000000E+00   0.00000000000000E+00  -4.51956581521808E-14  -4.00149278134037E-16  -4.55958074303149E-14
     -5.11628052533869E-17
      5.85369036703138E-01
      5.85369036703138E-01   5.85369036703138E-01   0.00000000000000E+00   0.00000000000000E+00   4.62644267874488E-14
      8.24543828176468E-20   4.62645092418316E-14   5.14710829783385E-17   0.00000000000000E+00   0.00000000000000E+00
      0.00000000000000E+00   0.00000000000000E+00  -4.58599719257224E-14  -4.04537316109244E-16  -4.62645092418316E-14
     -5.14710829783384E-17
      6.00364765830276E-01
      6.00364765830276E-01   6.00364765830276E-01   0.00000000000000E+00   0.00000000000000E+00   4.68911070623763E-14
      6.75869438817278E-20   4.68911746493202E-14   5.17601279428959E-17   0.00000000000000E+00   0.00000000000000E+00
      0.00000000000000E+00   0.00000000000000E+00  -4.64826648615528E-14  -4.08509787767333E-16  -4.68911746493202E-14
     -5.17601279428959E-17
      6.14360779682271E-01
      6.14360779682271E-01   6.14360779682271E-01   0.00000000000000E+00   0.00000000000000E+00   4.74679338245158E-14
      6.68614501285544E-20   4.74680006859659E-14   5.20310268026452E-17   0.00000000000000E+00   0.00000000000000E+00
      0.00000000000000E+00   0.00000000000000E+00  -4.70558537346550E-14  -4.12146951310955E-16  -4.74680006859659E-14
     -5.20310268026451E-17
      6.40486672205996E-01
      6.40486672205996E-01   6.40486672205996E-01   0.00000000000000E+00   0.00000000000000E+00   4.85336108984593E-14
      6.89151753952564E-20   4.85336798136347E-14   5.25395293660352E-17   0.00000000000000E+00   0.00000000000000E+00
      0.00000000000000E+00   0.00000000000000E+00  -4.81149599249760E-14  -4.18719888658661E-16  -4.85336798136346E-14
     -5.25395293660352E-17
      6.61039040991326E-01
      6.61039040991326E-01   6.61039040991326E-01   0.00000000000000E+00   0.00000000000000E+00   4.93619676295860E-14
      6.88159646164775E-20   4.93620364455506E-14   5.29420611420306E-17   0.00000000000000E+00   0.00000000000000E+00
      0.00000000000000E+00   0.00000000000000E+00  -4.89383552878656E-14  -4.23681157685001E-16  -4.93620364455506E-14
     -5.29420611420306E-17
      6.79947220273830E-01
      6.79947220273830E-01   6.79947220273830E-01   0.00000000000000E+00   0.00000000000000E+00   5.01161665872747E-14
      6.74480279437327E-20   5.01162340353027E-14   5.33142814019078E-17   0.00000000000000E+00   0.00000000000000E+00
      0.00000000000000E+00   0.00000000000000E+00  -4.96881573744140E-14  -4.28076660888756E-16  -5.01162340353027E-14
     -5.33142814019078E-17
      6.97342745213734E-01
      6.97342745213734E-01   6.97342745213734E-01   0.00000000000000E+00   0.00000000000000E+00   5.08036669719901E-14
      6.88089263807859E-20   5.08037357809165E-14   5.36582817541437E-17   0.00000000000000E+00   0.00000000000000E+00
      0.00000000000000E+00   0.00000000000000E+00  -5.03717583943368E-14  -4.31977386579711E-16  -5.08037357809165E-14
     -5.36582817541436E-17
      7.13346628158445E-01
      7.13346628158445E-01   7.13346628158445E-01   0.00000000000000E+00   0.00000000000000E+00   5.14282122503659E-14
      7.65842311681091E-20   5.14282888345971E-14   5.39760483771323E-17   0.00000000000000E+00   0.00000000000000E+00
      0.00000000000000E+00   0.00000000000000E+00  -5.09928419248921E-14  -4.35446909704887E-16  -5.14282888345970E-14
     -5.39760483771323E-17
      7.28283585573508E-01
      7.28283585573508E-01   7.28283585573508E-01   0.00000000000000E+00   0.00000000000000E+00   5.20111041361205E-14
      6.80998909197213E-20   5.20111722360114E-14   5.42737179126061E-17   0.00000000000000E+00   0.00000000000000E+00
      0.00000000000000E+00   0.00000000000000E+00  -5.15726118279949E-14  -4.38560408016449E-16  -5.20111722360114E-14
     -5.42737179126060E-17
      7.42224745827568E-01
      7.42224745827568E-01   7.42224745827568E-01   0.00000000000000E+00   0.00000000000000E+00   5.25489713872599E-14
      6.87215812120271E-20   5.25490401088411E-14   5.45524705743007E-17   0.00000000000000E+00   0.00000000000000E+00
      0.00000000000000E+00   0.00000000000000E+00  -5.21076604637388E-14  -4.41379645102304E-16  -5.25490401088411E-14
     -5.45524705743006E-17
      7.55236495398024E-01
      7.55236495398024E-01   7.55236495398024E-01   0.00000000000000E+00   0.00000000000000E+00   5.30473726505555E-14
      6.85448141439053E-20   5.30474411953696E-14   5.48134325625449E-17   0.00000000000000E+00   0.00000000000000E+00
      0.00000000000000E+00   0.00000000000000E+00  -5.26035131027654E-14  -4.43928092604186E-16  -5.30474411953696E-14
     -5.48134325625449E-17
      7.79872074584753E-01
      7.79872074584753E-01   7.79872074584753E-01   0.00000000000000E+00   0.00000000000000E+00   5.39819318114314E-14
      6.88780303517284E-20   5.39820006894617E-14   5.53095690030089E-17   0.00000000000000E+00   0.00000000000000E+00
      0.00000000000000E+00   0.00000000000000E+00  -5.35334592974480E-14  -4.48541392013716E-16  -5.39820006894617E-14
     -5.53095690030088E-17
      8.00565961101605E-01
      8.00565961101605E-01   8.00565961101605E-01   0.00000000000000E+00   0.00000000000000E+00   5.47578388147834E-14
      6.88470324994894E-20   5.47579076618159E-14   5.57283421417709E-17   0.00000000000000E+00   0.00000000000000E+00
      0.00000000000000E+00   0.00000000000000E+00  -5.43056983449814E-14  -4.52209316834489E-16  -5.47579076618159E-14
     -5.57283421417711E-17
      8.19604336697110E-01
      8.19604336697110E-01   8.19604336697110E-01   0.00000000000000E+00   0.00000000000000E+00   5.54644406628781E-14
      6.81349268540746E-20   5.54645087978049E-14   5.61151956394825E-17   0.00000000000000E+00   0.00000000000000E+00
      0.00000000000000E+00   0.00000000000000E+00  -5.50090833663524E-14  -4.55425431452392E-16  -5.54645087978048E-14
     -5.61151956394825E-17
      8.37119642244973E-01
      8.37119642244973E-01   8.37119642244973E-01   0.00000000000000E+00   0.00000000000000E+00   5.61084842764592E-14
      6.88277388629943E-20   5.61085531041980E-14   5.64724071747085E-17   0.00000000000000E+00   0.00000000000000E+00
      0.00000000000000E+00   0.00000000000000E+00  -5.56502927265891E-14  -4.58260377608918E-16  -5.61085531041980E-14
     -5.64724071747086E-17
      8.53233723349008E-01
      8.53233723349008E-01   8.53233723349008E-01   0.00000000000000E+00   0.00000000000000E+00   5.66946423722342E-14
      8.14513107520697E-20   5.66947238235449E-14   5.68021228054767E-17   0.00000000000000E+00   0.00000000000000E+00
      0.00000000000000E+00   0.00000000000000E+00  -5.62339423301059E-14  -4.60781493438993E-16  -5.66947238235449E-14
     -5.68021228054768E-17
      8.68273532379441E-01
      8.68273532379441E-01   8.68273532379441E-01   0.00000000000000E+00   0.00000000000000E+00   5.72398386900280E-14
      6.85139610085588E-20   5.72399072039890E-14   5.71107730505155E-17   0.00000000000000E+00   0.00000000000000E+00
      0.00000000000000E+00   0.00000000000000E+00  -5.67768766399204E-14  -4.63030564068484E-16  -5.72399072039889E-14
     -5.71107730505156E-17
      8.82310687474511E-01
      8.82310687474511E-01   8.82310687474511E-01   0.00000000000000E+00   0.00000000000000E+00   5.77436497948102E-14
      6.66288552387713E-20   5.77437164236654E-14   5.73996293470331E-17   0.00000000000000E+00   0.00000000000000E+00
      0.00000000000000E+00   0.00000000000000E+00  -5.72786409183110E-14  -4.65075505354377E-16  -5.77437164236654E-14
     -5.73996293470332E-17
      8.95412032229910E-01
      8.95412032229910E-01   8.95412032229910E-01   0.00000000000000E+00   0.00000000000000E+00   5.82107730978158E-14
      6.85739712221658E-20   5.82108416717870E-14   5.76698986424005E-17   0.00000000000000E+00   0.00000000000000E+00
      0.00000000000000E+00   0.00000000000000E+00  -5.77439057250105E-14  -4.66935946776413E-16  -5.82108416717869E-14
     -5.76698986424005E-17
      9.20217244966799E-01
      9.20217244966799E-01   9.20217244966799E-01   0.00000000000000E+00   0.00000000000000E+00   5.90868583269132E-14
      6.87017261811027E-20   5.90869270286394E-14   5.81833435631536E-17   0.00000000000000E+00   0.00000000000000E+00
      0.00000000000000E+00   0.00000000000000E+00  -5.86165961145016E-14  -4.70330914137807E-16  -5.90869270286394E-14
     -5.81833435631534E-17
      9.41384359835611E-01
      9.41384359835611E-01   9.41384359835611E-01   0.00000000000000E+00   0.00000000000000E+00   5.98256292271218E-14
      6.88087984730379E-20   5.98256980359203E-14   5.86232368367854E-17   0.00000000000000E+00   0.00000000000000E+00
      0.00000000000000E+00   0.00000000000000E+00  -5.93525831090955E-14  -4.73114926824852E-16  -5.98256980359203E-14
     -5.86232368367855E-17
      9.60858105514917E-01
      9.60858105514917E-01   9.60858105514917E-01   0.00000000000000E+00   0.00000000000000E+00   6.04986311395075E-14
      6.34849704697649E-20   6.04986946244780E-14   5.90293284807701E-17   0.00000000000000E+00   0.00000000000000E+00
      0.00000000000000E+00   0.00000000000000E+00  -6.00231025343554E-14  -4.75592090122511E-16  -6.04986946244779E-14
     -5.90293284807700E-17
      9.78773951539880E-01
      9.78773951539880E-01   9.78773951539880E-01   0.00000000000000E+00   0.00000000000000E+00   6.11119468751470E-14
      6.83462420437730E-20   6.11120152213890E-14   5.94040827181248E-17   0.00000000000000E+00   0.00000000000000E+00
      0.00000000000000E+00   0.00000000000000E+00  -6.06341916085098E-14  -4.77823612879422E-16  -6.11120152213892E-14
     -5.94040827181248E-17
      1.00000000000000E+00
      1.00000000000000E+00   1.00000000000000E+00   0.00000000000000E+00   0.00000000000000E+00   6.18316391290782E-14
      6.87590677523522E-20   6.18317078881459E-14   5.98494727319556E-17   0.00000000000000E+00   0.00000000000000E+00
      0.00000000000000E+00   0.00000000000000E+00  -6.13513058931917E-14  -4.80401994954379E-16  -6.18317078881460E-14
     -5.98494727319554E-17
}
