DF-ISE text

Info {
  version   = 1.0
  type      = xyplot
  datasets  = [
    "time"
    "top OuterVoltage" "top InnerVoltage" "top QuasiFermiPotential" "top DisplacementCurrent" "top eCurrent"
    "top hCurrent" "top TotalCurrent" "top Charge" "bottom OuterVoltage" "bottom InnerVoltage"
    "bottom QuasiFermiPotential" "bottom DisplacementCurrent" "bottom eCurrent" "bottom hCurrent" "bottom TotalCurrent"
    "bottom Charge" ]
  functions = [
    Time
    OuterVoltage InnerVoltage QuasiFermiPotential DisplacementCurrent eCurrent
    hCurrent TotalCurrent Charge OuterVoltage InnerVoltage
    QuasiFermiPotential DisplacementCurrent eCurrent hCurrent TotalCurrent
    Charge ]
}

Data {
      0.00000000000000E+00
      0.00000000000000E+00   0.00000000000000E+00   0.00000000000000E+00   0.00000000000000E+00   1.24125636101955E-21
     -5.01592717003590E-30   1.24125635600363E-21   5.21241511404248E-17   0.00000000000000E+00   0.00000000000000E+00
      0.00000000000000E+00   0.00000000000000E+00  -1.24125636121848E-21   5.21485347861191E-30  -1.24125635600363E-21
     -5.21241511404247E-17
      0.00000000000000E+00
      0.00000000000000E+00   0.00000000000000E+00   0.00000000000000E+00   0.00000000000000E+00   3.07927949510979E-20
     -1.18757268000933E-30   3.07927949499104E-20   5.21241511410903E-17   0.00000000000000E+00   0.00000000000000E+00
      0.00000000000000E+00   0.00000000000000E+00  -3.07927949511394E-20   1.22914996639172E-30  -3.07927949499103E-20
     -5.21241511410902E-17
      1.00000000000000E-02
      1.00000000000000E-02   1.00000000000000E-02   0.00000000000000E+00   0.00000000000000E+00   6.64363944537877E-15
      2.69015262855593E-21   6.64364213553140E-15   5.22605809540033E-17   0.00000000000000E+00   0.00000000000000E+00
      0.00000000000000E+00   0.00000000000000E+00  -6.61550542634003E-15  -2.81367091913703E-17  -6.64364213553140E-15
     -5.22605809540031E-17
      1.93333333333333E-02
      1.93333333333333E-02   1.93333333333333E-02   0.00000000000000E+00   0.00000000000000E+00   1.11705177567485E-14
      4.41354044627789E-21   1.11705221702890E-14   5.23891261104617E-17   0.00000000000000E+00   0.00000000000000E+00
      0.00000000000000E+00   0.00000000000000E+00  -1.11201660978850E-14  -5.03560724039725E-17  -1.11705221702890E-14
     -5.23891261104616E-17
      3.70044444444445E-02
      3.70044444444445E-02   3.70044444444445E-02   0.00000000000000E+00   0.00000000000000E+00   1.68530965657450E-14
      6.37922275737490E-21   1.68531029449677E-14   5.26356518324620E-17   0.00000000000000E+00   0.00000000000000E+00
      0.00000000000000E+00   0.00000000000000E+00  -1.67686474144566E-14  -8.44555305111098E-17  -1.68531029449677E-14
     -5.26356518324621E-17
      5.16125629629630E-02
      5.16125629629630E-02   5.16125629629630E-02   0.00000000000000E+00   0.00000000000000E+00   1.97914524883095E-14
      7.49361989033719E-21   1.97914599819294E-14   5.28424941910723E-17   0.00000000000000E+00   0.00000000000000E+00
      0.00000000000000E+00   0.00000000000000E+00  -1.96844656140517E-14  -1.06994367877667E-16  -1.97914599819294E-14
     -5.28424941910723E-17
      6.50520320000000E-02
      6.50520320000000E-02   6.50520320000000E-02   0.00000000000000E+00   0.00000000000000E+00   2.16838273876768E-14
      7.68339162638955E-21   2.16838350710685E-14   5.30351707169081E-17   0.00000000000000E+00   0.00000000000000E+00
      0.00000000000000E+00   0.00000000000000E+00  -2.15592300999713E-14  -1.24604971097151E-16  -2.16838350710684E-14
     -5.30351707169081E-17
      7.74163435140741E-02
      7.74163435140741E-02   7.74163435140741E-02   0.00000000000000E+00   0.00000000000000E+00   2.30039482967651E-14
      7.93535393541420E-21   2.30039562321191E-14   5.32144076924404E-17   0.00000000000000E+00   0.00000000000000E+00
      0.00000000000000E+00   0.00000000000000E+00  -2.28650783215774E-14  -1.38877910541696E-16  -2.30039562321191E-14
     -5.32144076924403E-17
      8.87915101070222E-02
      8.87915101070222E-02   8.87915101070222E-02   0.00000000000000E+00   0.00000000000000E+00   2.39929810801670E-14
      8.08025452190219E-21   2.39929891604216E-14   5.33809449402962E-17   0.00000000000000E+00   0.00000000000000E+00
      0.00000000000000E+00   0.00000000000000E+00  -2.38422173634543E-14  -1.50771796967276E-16  -2.39929891604216E-14
     -5.33809449402963E-17
      9.94083322604405E-02
      9.94083322604405E-02   9.94083322604405E-02   0.00000000000000E+00   0.00000000000000E+00   2.47892167962061E-14
      8.16749260660902E-21   2.47892249636987E-14   5.35377715163510E-17   0.00000000000000E+00   0.00000000000000E+00
      0.00000000000000E+00   0.00000000000000E+00  -2.46281929451823E-14  -1.61032018516452E-16  -2.47892249636987E-14
     -5.35377715163510E-17
      1.09317366270298E-01
      1.09317366270298E-01   1.09317366270298E-01   0.00000000000000E+00   0.00000000000000E+00   2.54584648526183E-14
      8.22211526137667E-21   2.54584730747335E-14   5.36853348833891E-17   0.00000000000000E+00   0.00000000000000E+00
      0.00000000000000E+00   0.00000000000000E+00  -2.52884601600644E-14  -1.70012914669233E-16  -2.54584730747336E-14
     -5.36853348833891E-17
      1.18697918466296E-01
      1.18697918466296E-01   1.18697918466296E-01   0.00000000000000E+00   0.00000000000000E+00   2.60480355959063E-14
      8.25573601527882E-21   2.60480438516423E-14   5.38260715693359E-17   0.00000000000000E+00   0.00000000000000E+00
      0.00000000000000E+00   0.00000000000000E+00  -2.58699723641187E-14  -1.78071487523629E-16  -2.60480438516423E-14
     -5.38260715693359E-17
      1.36458430624052E-01
      1.36458430624052E-01   1.36458430624052E-01   0.00000000000000E+00   0.00000000000000E+00   2.70891282960193E-14
      8.29333990700779E-21   2.70891365893592E-14   5.40952569534168E-17   0.00000000000000E+00   0.00000000000000E+00
      0.00000000000000E+00   0.00000000000000E+00  -2.68967813104895E-14  -1.92355278869643E-16  -2.70891365893592E-14
     -5.40952569534167E-17
      1.51850874494107E-01
      1.51850874494107E-01   1.51850874494107E-01   0.00000000000000E+00   0.00000000000000E+00   2.79448933910807E-14
      9.37031000270919E-21   2.79449027613907E-14   5.43313678993761E-17   0.00000000000000E+00   0.00000000000000E+00
      0.00000000000000E+00   0.00000000000000E+00  -2.77410190942195E-14  -2.03883667171155E-16  -2.79449027613907E-14
     -5.43313678993762E-17
      1.66011922854558E-01
      1.66011922854558E-01   1.66011922854558E-01   0.00000000000000E+00   0.00000000000000E+00   2.87097913007931E-14
     -1.96346458233692E-20   2.87097716661473E-14   5.45508402681692E-17   0.00000000000000E+00   0.00000000000000E+00
      0.00000000000000E+00   0.00000000000000E+00  -2.84958964319298E-14  -2.13875234217552E-16  -2.87097716661473E-14
     -5.45508402681693E-17
      1.79228901324312E-01
      1.79228901324312E-01   1.79228901324312E-01   0.00000000000000E+00   0.00000000000000E+00   2.94134107863415E-14
      8.24338462924579E-21   2.94134190297261E-14   5.47575808421155E-17   0.00000000000000E+00   0.00000000000000E+00
      0.00000000000000E+00   0.00000000000000E+00  -2.91906063785916E-14  -2.22812651134511E-16  -2.94134190297261E-14
     -5.47575808421155E-17
      1.91564747896083E-01
      1.91564747896083E-01   1.91564747896083E-01   0.00000000000000E+00   0.00000000000000E+00   3.00621424079844E-14
      8.32113627495234E-21   3.00621507291206E-14   5.49521570439085E-17   0.00000000000000E+00   0.00000000000000E+00
      0.00000000000000E+00   0.00000000000000E+00  -2.98313701104296E-14  -2.30780618690962E-16  -3.00621507291205E-14
     -5.49521570439086E-17
      2.03078204696402E-01
      2.03078204696402E-01   2.03078204696402E-01   0.00000000000000E+00   0.00000000000000E+00   3.06623988975798E-14
      8.32256264544756E-21   3.06624072201425E-14   5.51351420959985E-17   0.00000000000000E+00   0.00000000000000E+00
      0.00000000000000E+00   0.00000000000000E+00  -3.04244676673025E-14  -2.37939552840081E-16  -3.06624072201426E-14
     -5.51351420959984E-17
      2.13824097710033E-01
      2.13824097710033E-01   2.13824097710033E-01   0.00000000000000E+00   0.00000000000000E+00   3.12195068270708E-14
      8.17062474504221E-21   3.12195149976955E-14   5.53071075191701E-17   0.00000000000000E+00   0.00000000000000E+00
      0.00000000000000E+00   0.00000000000000E+00  -3.09751185707215E-14  -2.44396426974046E-16  -3.12195149976955E-14
     -5.53071075191702E-17
      2.23996876429604E-01
      2.23996876429604E-01   2.23996876429604E-01   0.00000000000000E+00   0.00000000000000E+00   3.17426458900094E-14
      8.32316236662945E-21   3.17426542131718E-14   5.54709316049875E-17   0.00000000000000E+00   0.00000000000000E+00
      0.00000000000000E+00   0.00000000000000E+00  -3.14923322090586E-14  -2.50322004113123E-16  -3.17426542131717E-14
     -5.54709316049876E-17
      2.33627106950798E-01
      2.33627106950798E-01   2.33627106950798E-01   0.00000000000000E+00   0.00000000000000E+00   3.22358314330268E-14
      8.32326077291646E-21   3.22358397562875E-14   5.56269257740135E-17   0.00000000000000E+00   0.00000000000000E+00
      0.00000000000000E+00   0.00000000000000E+00  -3.19800666860505E-14  -2.55773070236942E-16  -3.22358397562875E-14
     -5.56269257740133E-17
      2.51860343404259E-01
      2.51860343404259E-01   2.51860343404259E-01   0.00000000000000E+00   0.00000000000000E+00   3.31630057265223E-14
      8.32331798860748E-21   3.31630140498403E-14   5.59246404973643E-17   0.00000000000000E+00   0.00000000000000E+00
      0.00000000000000E+00   0.00000000000000E+00  -3.28973149635288E-14  -2.65699086311573E-16  -3.31630140498403E-14
     -5.59246404973643E-17
      2.65960712928268E-01
      2.65960712928268E-01   2.65960712928268E-01   0.00000000000000E+00   0.00000000000000E+00   3.38741775700552E-14
      1.68948048195273E-20   3.38741944648600E-14   5.61569464541262E-17   0.00000000000000E+00   0.00000000000000E+00
      0.00000000000000E+00   0.00000000000000E+00  -3.36011422100965E-14  -2.73052254763639E-16  -3.38741944648601E-14
     -5.61569464541261E-17
      2.79121057817343E-01
      2.79121057817343E-01   2.79121057817343E-01   0.00000000000000E+00   0.00000000000000E+00   3.45331619584224E-14
      8.27690843801845E-21   3.45331702353308E-14   5.63753553312346E-17   0.00000000000000E+00   0.00000000000000E+00
      0.00000000000000E+00   0.00000000000000E+00  -3.42535166984811E-14  -2.79653536849644E-16  -3.45331702353307E-14
     -5.63753553312348E-17
      2.91404046380480E-01
      2.91404046380480E-01   2.91404046380480E-01   0.00000000000000E+00   0.00000000000000E+00   3.51443001436611E-14
      8.31997370038164E-21   3.51443084636348E-14   5.65805581094444E-17   0.00000000000000E+00   0.00000000000000E+00
      0.00000000000000E+00   0.00000000000000E+00  -3.48586895448132E-14  -2.85618918821570E-16  -3.51443084636348E-14
     -5.65805581094444E-17
      3.02868169039408E-01
      3.02868169039408E-01   3.02868169039408E-01   0.00000000000000E+00   0.00000000000000E+00   3.57112068678603E-14
      8.32326766084519E-21   3.57112151911280E-14   5.67732363605944E-17   0.00000000000000E+00   0.00000000000000E+00
      0.00000000000000E+00   0.00000000000000E+00  -3.54201997628756E-14  -2.91015428252368E-16  -3.57112151911279E-14
     -5.67732363605942E-17
      3.13568016854408E-01
      3.13568016854408E-01   3.13568016854408E-01   0.00000000000000E+00   0.00000000000000E+00   3.62373816263674E-14
      7.37473371093912E-21   3.62373890011011E-14   5.69540568277968E-17   0.00000000000000E+00   0.00000000000000E+00
      0.00000000000000E+00   0.00000000000000E+00  -3.59414822476684E-14  -2.95906753432744E-16  -3.62373890011011E-14
     -5.69540568277968E-17
      3.23697206119274E-01
      3.23697206119274E-01   3.23697206119274E-01   0.00000000000000E+00   0.00000000000000E+00   3.67326372895898E-14
      8.31945491118466E-21   3.67326456090447E-14   5.71260962778093E-17   0.00000000000000E+00   0.00000000000000E+00
      0.00000000000000E+00   0.00000000000000E+00  -3.64322314843074E-14  -3.00414124737304E-16  -3.67326456090447E-14
     -5.71260962778092E-17
      3.33286171956680E-01
      3.33286171956680E-01   3.33286171956680E-01   0.00000000000000E+00   0.00000000000000E+00   3.71991937050538E-14
      8.32287330382055E-21   3.71992020279271E-14   5.72897204573226E-17   0.00000000000000E+00   0.00000000000000E+00
      0.00000000000000E+00   0.00000000000000E+00  -3.68946307508508E-14  -3.04571277076203E-16  -3.71992020279270E-14
     -5.72897204573225E-17
      3.51441280608837E-01
      3.51441280608837E-01   3.51441280608837E-01   0.00000000000000E+00   0.00000000000000E+00   3.80759272229228E-14
      8.31305242161028E-21   3.80759355359752E-14   5.76014985560003E-17   0.00000000000000E+00   0.00000000000000E+00
      0.00000000000000E+00   0.00000000000000E+00  -3.77637730561218E-14  -3.12162479853257E-16  -3.80759355359751E-14
     -5.76014985560001E-17
      3.67659844338096E-01
      3.67659844338096E-01   3.67659844338096E-01   0.00000000000000E+00   0.00000000000000E+00   3.88532226850208E-14
      8.45994361981639E-21   3.88532311449644E-14   5.78821625025274E-17   0.00000000000000E+00   0.00000000000000E+00
      0.00000000000000E+00   0.00000000000000E+00  -3.85345816733841E-14  -3.18649471580241E-16  -3.88532311449644E-14
     -5.78821625025276E-17
      3.82580922969015E-01
      3.82580922969015E-01   3.82580922969015E-01   0.00000000000000E+00   0.00000000000000E+00   3.95654319516905E-14
      3.46286088230229E-20   3.95654665802993E-14   5.81421110508408E-17   0.00000000000000E+00   0.00000000000000E+00
      0.00000000000000E+00   0.00000000000000E+00  -3.92410560739136E-14  -3.24410506385800E-16  -3.95654665802994E-14
     -5.81421110508407E-17
      3.96507263024539E-01
      3.96507263024539E-01   3.96507263024539E-01   0.00000000000000E+00   0.00000000000000E+00   4.02161832795044E-14
      2.05190133701231E-20   4.02162037985178E-14   5.83861957396189E-17   0.00000000000000E+00   0.00000000000000E+00
      0.00000000000000E+00   0.00000000000000E+00  -3.98866343822366E-14  -3.29569416281207E-16  -4.02162037985178E-14
     -5.83861957396187E-17
      4.09505180409695E-01
      4.09505180409695E-01   4.09505180409695E-01   0.00000000000000E+00   0.00000000000000E+00   4.08238972874773E-14
      8.30633528175536E-21   4.08239055938126E-14   5.86152566328988E-17   0.00000000000000E+00   0.00000000000000E+00
      0.00000000000000E+00   0.00000000000000E+00  -4.04896729120850E-14  -3.34232681727458E-16  -4.08239055938125E-14
     -5.86152566328987E-17
      4.21636569969174E-01
      4.21636569969174E-01   4.21636569969174E-01   0.00000000000000E+00   0.00000000000000E+00   4.13872576189149E-14
      8.31723892144119E-21   4.13872659361538E-14   5.88301118385191E-17   0.00000000000000E+00   0.00000000000000E+00
      0.00000000000000E+00   0.00000000000000E+00  -4.10487904629852E-14  -3.38475473168521E-16  -4.13872659361538E-14
     -5.88301118385192E-17
      4.32959200224688E-01
      4.32959200224688E-01   4.32959200224688E-01   0.00000000000000E+00   0.00000000000000E+00   4.19098069372325E-14
      8.32328517503134E-21   4.19098152605177E-14   5.90315532890731E-17   0.00000000000000E+00   0.00000000000000E+00
      0.00000000000000E+00   0.00000000000000E+00  -4.15674776168391E-14  -3.42337643678476E-16  -4.19098152605176E-14
     -5.90315532890730E-17
      4.43526988463168E-01
      4.43526988463168E-01   4.43526988463168E-01   0.00000000000000E+00   0.00000000000000E+00   4.23946249216410E-14
      8.07215699254554E-21   4.23946329937979E-14   5.92203438217694E-17   0.00000000000000E+00   0.00000000000000E+00
      0.00000000000000E+00   0.00000000000000E+00  -4.20487701494313E-14  -3.45862844366562E-16  -4.23946329937979E-14
     -5.92203438217694E-17
      4.53531161328928E-01
      4.53531161328928E-01   4.53531161328928E-01   0.00000000000000E+00   0.00000000000000E+00   4.28510273121443E-14
      8.32337240972523E-21   4.28510356355167E-14   5.93997466261053E-17   0.00000000000000E+00   0.00000000000000E+00
      0.00000000000000E+00   0.00000000000000E+00  -4.25019010045068E-14  -3.49134631009914E-16  -4.28510356355167E-14
     -5.93997466261053E-17
      4.63001778308515E-01
      4.63001778308515E-01   4.63001778308515E-01   0.00000000000000E+00   0.00000000000000E+00   4.32808448920128E-14
      8.32334893007007E-21   4.32808532153617E-14   5.95701821803204E-17   0.00000000000000E+00   0.00000000000000E+00
      0.00000000000000E+00   0.00000000000000E+00  -4.29286770354316E-14  -3.52176179930084E-16  -4.32808532153617E-14
     -5.95701821803202E-17
      4.80932813123199E-01
      4.80932813123199E-01   4.80932813123199E-01   0.00000000000000E+00   0.00000000000000E+00   4.40885622666571E-14
      8.25516524651314E-21   4.40885705218223E-14   5.98944436513582E-17   0.00000000000000E+00   0.00000000000000E+00
      0.00000000000000E+00   0.00000000000000E+00  -4.37307734167725E-14  -3.57797105049854E-16  -4.40885705218223E-14
     -5.98944436513583E-17
      4.97190284688512E-01
      4.97190284688512E-01   4.97190284688512E-01   0.00000000000000E+00   0.00000000000000E+00   4.48143894631264E-14
      8.31789788929378E-21   4.48143977810243E-14   6.01901776961206E-17   0.00000000000000E+00   0.00000000000000E+00
      0.00000000000000E+00   0.00000000000000E+00  -4.44516490776142E-14  -3.62748703410055E-16  -4.48143977810243E-14
     -6.01901776961206E-17
      5.12147158528601E-01
      5.12147158528601E-01   5.12147158528601E-01   0.00000000000000E+00   0.00000000000000E+00   4.54752022644876E-14
      2.76105991874513E-20   4.54752298750868E-14   6.04636761493248E-17   0.00000000000000E+00   0.00000000000000E+00
      0.00000000000000E+00   0.00000000000000E+00  -4.51080211636271E-14  -3.67208711459667E-16  -4.54752298750868E-14
     -6.04636761493248E-17
      5.26106907446017E-01
      5.26106907446017E-01   5.26106907446017E-01   0.00000000000000E+00   0.00000000000000E+00   4.60892392005434E-14
      2.20078648656654E-20   4.60892612084082E-14   6.07201443634698E-17   0.00000000000000E+00   0.00000000000000E+00
      0.00000000000000E+00   0.00000000000000E+00  -4.57180071364901E-14  -3.71254071918252E-16  -4.60892612084084E-14
     -6.07201443634699E-17
      5.39136006435605E-01
      5.39136006435605E-01   5.39136006435605E-01   0.00000000000000E+00   0.00000000000000E+00   4.66571905485363E-14
      8.30217334094760E-21   4.66571988507097E-14   6.09605411356483E-17   0.00000000000000E+00   0.00000000000000E+00
      0.00000000000000E+00   0.00000000000000E+00  -4.62822593729590E-14  -3.74939477750617E-16  -4.66571988507096E-14
     -6.09605411356482E-17
      5.51296498825887E-01
      5.51296498825887E-01   5.51296498825887E-01   0.00000000000000E+00   0.00000000000000E+00   4.71836028820921E-14
      8.30326985230010E-21   4.71836111853619E-14   6.11857886607967E-17   0.00000000000000E+00   0.00000000000000E+00
      0.00000000000000E+00   0.00000000000000E+00  -4.68052897713485E-14  -3.78321414013554E-16  -4.71836111853620E-14
     -6.11857886607967E-17
      5.62646291723484E-01
      5.62646291723484E-01   5.62646291723484E-01   0.00000000000000E+00   0.00000000000000E+00   4.76721162894444E-14
      8.28667982930801E-21   4.76721245761243E-14   6.13967704560265E-17   0.00000000000000E+00   0.00000000000000E+00
      0.00000000000000E+00   0.00000000000000E+00  -4.72907086406640E-14  -3.81415935460229E-16  -4.76721245761243E-14
     -6.13967704560264E-17
      5.73390762333209E-01
      5.73390762333209E-01   5.73390762333209E-01   0.00000000000000E+00   0.00000000000000E+00   4.81314693726698E-14
      8.05529488900157E-21   4.81314774279647E-14   6.15971569656498E-17   0.00000000000000E+00   0.00000000000000E+00
      0.00000000000000E+00   0.00000000000000E+00  -4.77471880982695E-14  -3.84289329695157E-16  -4.81314774279647E-14
     -6.15971569656497E-17
      5.83562194510415E-01
      5.83562194510415E-01   5.83562194510415E-01   0.00000000000000E+00   0.00000000000000E+00   4.85639546244942E-14
      8.28495940852850E-21   4.85639629094536E-14   6.17874361324655E-17   0.00000000000000E+00   0.00000000000000E+00
      0.00000000000000E+00   0.00000000000000E+00  -4.81770038852623E-14  -3.86959024191257E-16  -4.85639629094536E-14
     -6.17874361324654E-17
      5.93191150304837E-01
      5.93191150304837E-01   5.93191150304837E-01   0.00000000000000E+00   0.00000000000000E+00   4.89712913391771E-14
      8.32335396491022E-21   4.89712996625310E-14   6.19680794214030E-17   0.00000000000000E+00   0.00000000000000E+00
      0.00000000000000E+00   0.00000000000000E+00  -4.85818599217738E-14  -3.89439740757067E-16  -4.89712996625309E-14
     -6.19680794214031E-17
      6.11421973275610E-01
      6.11421973275610E-01   6.11421973275610E-01   0.00000000000000E+00   0.00000000000000E+00   4.97363969159883E-14
      8.42473524550194E-21   4.97364053407235E-14   6.23114384631994E-17   0.00000000000000E+00   0.00000000000000E+00
      0.00000000000000E+00   0.00000000000000E+00  -4.93423951169927E-14  -3.94010223730796E-16  -4.97364053407235E-14
     -6.23114384631994E-17
      6.27951252769110E-01
      6.27951252769110E-01   6.27951252769110E-01   0.00000000000000E+00   0.00000000000000E+00   5.04236757941636E-14
      8.28423713574558E-21   5.04236840784008E-14   6.26242373134296E-17   0.00000000000000E+00   0.00000000000000E+00
      0.00000000000000E+00   0.00000000000000E+00  -5.00256764392295E-14  -3.98007639171227E-16  -5.04236840784008E-14
     -6.26242373134296E-17
      6.43158189903130E-01
      6.43158189903130E-01   6.43158189903130E-01   0.00000000000000E+00   0.00000000000000E+00   5.10504567177203E-14
      8.69001766100846E-21   5.10504654077379E-14   6.29132332289980E-17   0.00000000000000E+00   0.00000000000000E+00
      0.00000000000000E+00   0.00000000000000E+00  -5.06489049225279E-14  -4.01560485209966E-16  -5.10504654077379E-14
     -6.29132332289978E-17
      6.57148572066429E-01
      6.57148572066429E-01   6.57148572066429E-01   0.00000000000000E+00   0.00000000000000E+00   5.16224951222068E-14
      2.31794740234505E-20   5.16225183016808E-14   6.31801221993051E-17   0.00000000000000E+00   0.00000000000000E+00
      0.00000000000000E+00   0.00000000000000E+00  -5.12177822685176E-14  -4.04736033163288E-16  -5.16225183016809E-14
     -6.31801221993053E-17
      6.70206262085507E-01
      6.70206262085507E-01   6.70206262085507E-01   0.00000000000000E+00   0.00000000000000E+00   5.21525227793616E-14
      8.31043773742261E-21   5.21525310897993E-14   6.34300782325087E-17   0.00000000000000E+00   0.00000000000000E+00
      0.00000000000000E+00   0.00000000000000E+00  -5.17449524904006E-14  -4.07578599398727E-16  -5.21525310897993E-14
     -6.34300782325089E-17
      6.82393439436647E-01
      6.82393439436647E-01   6.82393439436647E-01   0.00000000000000E+00   0.00000000000000E+00   5.26439627349305E-14
      8.31401943252946E-21   5.26439710489499E-14   6.36641068813794E-17   0.00000000000000E+00   0.00000000000000E+00
      0.00000000000000E+00   0.00000000000000E+00  -5.22338060282666E-14  -4.10165020683228E-16  -5.26439710489499E-14
     -6.36641068813794E-17
      6.93768138297711E-01
      6.93768138297711E-01   6.93768138297711E-01   0.00000000000000E+00   0.00000000000000E+00   5.30994873581187E-14
      8.29859050729915E-21   5.30994956567092E-14   6.38831651953722E-17   0.00000000000000E+00   0.00000000000000E+00
      0.00000000000000E+00   0.00000000000000E+00  -5.26869860442459E-14  -4.12509612463294E-16  -5.30994956567092E-14
     -6.38831651953722E-17
      7.04536186552852E-01
      7.04536186552852E-01   7.04536186552852E-01   0.00000000000000E+00   0.00000000000000E+00   5.35282973802196E-14
      8.28910705560594E-21   5.35283056693267E-14   6.40910942773490E-17   0.00000000000000E+00   0.00000000000000E+00
      0.00000000000000E+00   0.00000000000000E+00  -5.31136372866321E-14  -4.14668382694644E-16  -5.35283056693267E-14
     -6.40910942773487E-17
      7.14729938901052E-01
      7.14729938901052E-01   7.14729938901052E-01   0.00000000000000E+00   0.00000000000000E+00   5.39318513850900E-14
      8.31399638094065E-21   5.39318596990863E-14   6.42884236028847E-17   0.00000000000000E+00   0.00000000000000E+00
      0.00000000000000E+00   0.00000000000000E+00  -5.35152010688959E-14  -4.16658630190454E-16  -5.39318596990863E-14
     -6.42884236028848E-17
      7.24380024457348E-01
      7.24380024457348E-01   7.24380024457348E-01   0.00000000000000E+00   0.00000000000000E+00   5.43120377427566E-14
      8.32335926845445E-21   5.43120460661158E-14   6.44756621968865E-17   0.00000000000000E+00   0.00000000000000E+00
      0.00000000000000E+00   0.00000000000000E+00  -5.38935501557857E-14  -4.18495910330123E-16  -5.43120460661159E-14
     -6.44756621968864E-17
      7.42650853110601E-01
      7.42650853110601E-01   7.42650853110601E-01   0.00000000000000E+00   0.00000000000000E+00   5.50261439207476E-14
      8.50017210784332E-21   5.50261524209197E-14   6.48313045594120E-17   0.00000000000000E+00   0.00000000000000E+00
      0.00000000000000E+00   0.00000000000000E+00  -5.46042983011664E-14  -4.21854119753289E-16  -5.50261524209197E-14
     -6.48313045594120E-17
      7.59216404422884E-01
      7.59216404422884E-01   7.59216404422884E-01   0.00000000000000E+00   0.00000000000000E+00   5.56675827500731E-14
      8.17886249381794E-21   5.56675909289356E-14   6.51550177469987E-17   0.00000000000000E+00   0.00000000000000E+00
      0.00000000000000E+00   0.00000000000000E+00  -5.52428226025126E-14  -4.24768326423055E-16  -5.56675909289356E-14
     -6.51550177469985E-17
      7.74456711630185E-01
      7.74456711630185E-01   7.74456711630185E-01   0.00000000000000E+00   0.00000000000000E+00   5.62525870818497E-14
      8.31327338898489E-21   5.62525953951231E-14   6.54538752205035E-17   0.00000000000000E+00   0.00000000000000E+00
      0.00000000000000E+00   0.00000000000000E+00  -5.58252482611056E-14  -4.27347134017456E-16  -5.62525953951231E-14
     -6.54538752205034E-17
      7.88477794260901E-01
      7.88477794260901E-01   7.88477794260901E-01   0.00000000000000E+00   0.00000000000000E+00   5.67865876143295E-14
      2.36968165991376E-20   5.67866113111461E-14   6.57296902178131E-17   0.00000000000000E+00   0.00000000000000E+00
      0.00000000000000E+00   0.00000000000000E+00  -5.63569578337798E-14  -4.29653477366384E-16  -5.67866113111462E-14
     -6.57296902178131E-17
      8.01564138049570E-01
      8.01564138049570E-01   8.01564138049570E-01   0.00000000000000E+00   0.00000000000000E+00   5.72814894912204E-14
      8.29877924828261E-21   5.72814977899997E-14   6.59878546375358E-17   0.00000000000000E+00   0.00000000000000E+00
      0.00000000000000E+00   0.00000000000000E+00  -5.68497872928172E-14  -4.31710497182497E-16  -5.72814977899997E-14
     -6.59878546375357E-17
      8.13778058918994E-01
      8.13778058918994E-01   8.13778058918994E-01   0.00000000000000E+00   0.00000000000000E+00   5.77402108113906E-14
      8.31163160796202E-21   5.77402191230223E-14   6.62294409482070E-17   0.00000000000000E+00   0.00000000000000E+00
      0.00000000000000E+00   0.00000000000000E+00  -5.73066278840670E-14  -4.33591238955124E-16  -5.77402191230222E-14
     -6.62294409482071E-17
      8.25177718397123E-01
      8.25177718397123E-01   8.25177718397123E-01   0.00000000000000E+00   0.00000000000000E+00   5.81657516358779E-14
      8.18745704415265E-21   5.81657598233349E-14   6.64554655001399E-17   0.00000000000000E+00   0.00000000000000E+00
      0.00000000000000E+00   0.00000000000000E+00  -5.77304568647480E-14  -4.35302958586913E-16  -5.81657598233349E-14
     -6.64554655001398E-17
      8.35969396036419E-01
      8.35969396036419E-01   8.35969396036419E-01   0.00000000000000E+00   0.00000000000000E+00   5.85662549429272E-14
      8.28843035706447E-21   5.85662632313575E-14   6.66699134597543E-17   0.00000000000000E+00   0.00000000000000E+00
      0.00000000000000E+00   0.00000000000000E+00  -5.81293757380653E-14  -4.36887493292157E-16  -5.85662632313574E-14
     -6.66699134597541E-17
      8.46185517534952E-01
      8.46185517534952E-01   8.46185517534952E-01   0.00000000000000E+00   0.00000000000000E+00   5.89431470423520E-14
      8.32231649232545E-21   5.89431553646685E-14   6.68733477472757E-17   0.00000000000000E+00   0.00000000000000E+00
      0.00000000000000E+00   0.00000000000000E+00  -5.85047980962657E-14  -4.38357268402767E-16  -5.89431553646685E-14
     -6.68733477472757E-17
      8.55856779220230E-01
      8.55856779220230E-01   8.55856779220230E-01   0.00000000000000E+00   0.00000000000000E+00   5.92981516412173E-14
      8.32336494548581E-21   5.92981599645823E-14   6.70663077549527E-17   0.00000000000000E+00   0.00000000000000E+00
      0.00000000000000E+00   0.00000000000000E+00  -5.88584365794504E-14  -4.39723385131929E-16  -5.92981599645823E-14
     -6.70663077549527E-17
      8.74167701344356E-01
      8.74167701344356E-01   8.74167701344356E-01   0.00000000000000E+00   0.00000000000000E+00   5.99654510133315E-14
      8.24660043335149E-21   5.99654592599319E-14   6.74326328276087E-17   0.00000000000000E+00   0.00000000000000E+00
      0.00000000000000E+00   0.00000000000000E+00  -5.95232108053757E-14  -4.42248454556208E-16  -5.99654592599319E-14
     -6.74326328276087E-17
      8.90769604070231E-01
      8.90769604070231E-01   8.90769604070231E-01   0.00000000000000E+00   0.00000000000000E+00   6.05649954088198E-14
      8.30440220340773E-21   6.05650037132220E-14   6.77658679680080E-17   0.00000000000000E+00   0.00000000000000E+00
      0.00000000000000E+00   0.00000000000000E+00  -6.01205276851613E-14  -4.44476028060640E-16  -6.05650037132220E-14
     -6.77658679680080E-17
      9.06043354578036E-01