DF-ISE text

Info {
  version   = 1.0
  type      = xyplot
  datasets  = [
    "time"
    "top OuterVoltage" "top InnerVoltage" "top QuasiFermiPotential" "top DisplacementCurrent" "top eCurrent"
    "top hCurrent" "top TotalCurrent" "top Charge" "bottom OuterVoltage" "bottom InnerVoltage"
    "bottom QuasiFermiPotential" "bottom DisplacementCurrent" "bottom eCurrent" "bottom hCurrent" "bottom TotalCurrent"
    "bottom Charge" ]
  functions = [
    Time
    OuterVoltage InnerVoltage QuasiFermiPotential DisplacementCurrent eCurrent
    hCurrent TotalCurrent Charge OuterVoltage InnerVoltage
    QuasiFermiPotential DisplacementCurrent eCurrent hCurrent TotalCurrent
    Charge ]
}

Data {
      0.00000000000000E+00
      0.00000000000000E+00   0.00000000000000E+00   0.00000000000000E+00   0.00000000000000E+00   3.97274321618321E-23
     -2.65258850761771E-30   3.97274295092436E-23   6.50768129709320E-17   0.00000000000000E+00   0.00000000000000E+00
      0.00000000000000E+00   0.00000000000000E+00  -3.97274321637413E-23   2.65449782268432E-30  -3.97274295092435E-23
     -6.50768129709320E-17
      0.00000000000000E+00
      0.00000000000000E+00   0.00000000000000E+00   0.00000000000000E+00   0.00000000000000E+00  -1.03679263355260E-17
      5.12082704163212E-28  -1.03679263350140E-17   6.50767795982912E-17   0.00000000000000E+00   0.00000000000000E+00
      0.00000000000000E+00   0.00000000000000E+00   1.03679263397348E-17  -4.72084781770772E-27   1.03679263350139E-17
     -6.50767795982912E-17
      1.00000000000000E-02
      1.00000000000000E-02   1.00000000000000E-02   0.00000000000000E+00   0.00000000000000E+00   1.06513648262193E-16
      5.47140421136193E-19   1.07060788683329E-16   6.54702303310478E-17   0.00000000000000E+00   0.00000000000000E+00
      0.00000000000000E+00   0.00000000000000E+00  -9.64652040701060E-17  -1.05955846132226E-17  -1.07060788683329E-16
     -6.54702303310478E-17
      2.89333333333333E-02
      2.89333333333333E-02   2.89333333333333E-02   0.00000000000000E+00   0.00000000000000E+00   2.30819004481852E-16
      1.08966054231807E-18   2.31908665024170E-16   6.62126791583854E-17   0.00000000000000E+00   0.00000000000000E+00
      0.00000000000000E+00   0.00000000000000E+00  -2.05334309303209E-16  -2.65743557209601E-17  -2.31908665024170E-16
     -6.62126791583853E-17
      6.42755555555556E-02
      6.42755555555556E-02   6.42755555555556E-02   0.00000000000000E+00   0.00000000000000E+00   3.76406009958611E-16
      1.36992592247969E-18   3.77775935881091E-16   6.75898443775374E-17   0.00000000000000E+00   0.00000000000000E+00
      0.00000000000000E+00   0.00000000000000E+00  -3.29770793836711E-16  -4.80051420443788E-17  -3.77775935881090E-16
     -6.75898443775373E-17
      1.14275555555556E-01
      1.14275555555556E-01   1.14275555555556E-01   0.00000000000000E+00   0.00000000000000E+00   3.86137809463443E-16
      1.74833777837357E-18   3.87886147241817E-16   6.95186247526023E-17   0.00000000000000E+00   0.00000000000000E+00
      0.00000000000000E+00   0.00000000000000E+00  -3.17230632606980E-16  -7.06555146348371E-17  -3.87886147241817E-16
     -6.95186247526023E-17
      1.64275555555556E-01
      1.64275555555556E-01   1.64275555555556E-01   0.00000000000000E+00   0.00000000000000E+00   4.20580690248942E-16
      1.62698724498231E-18   4.22207677493924E-16   7.14244055777320E-17   0.00000000000000E+00   0.00000000000000E+00
      0.00000000000000E+00   0.00000000000000E+00  -3.32720242324724E-16  -8.94874351692007E-17  -4.22207677493925E-16
     -7.14244055777320E-17
      2.14275555555556E-01
      2.14275555555556E-01   2.14275555555556E-01   0.00000000000000E+00   0.00000000000000E+00   4.52089071082114E-16
      1.47495636563628E-18   4.53564027447750E-16   7.33071645888372E-17   0.00000000000000E+00   0.00000000000000E+00
      0.00000000000000E+00   0.00000000000000E+00  -3.46760241862640E-16  -1.06803785585111E-16  -4.53564027447750E-16
     -7.33071645888371E-17
      2.64275555555556E-01
      2.64275555555556E-01   2.64275555555556E-01   0.00000000000000E+00   0.00000000000000E+00   4.83068819423942E-16
      1.75731600125703E-18   4.84826135425199E-16   7.51669418853071E-17   0.00000000000000E+00   0.00000000000000E+00
      0.00000000000000E+00   0.00000000000000E+00  -3.61258221310034E-16  -1.23567914115164E-16  -4.84826135425198E-16
     -7.51669418853070E-17
      3.14275555555556E-01
      3.14275555555556E-01   3.14275555555556E-01   0.00000000000000E+00   0.00000000000000E+00   5.13978917406868E-16
      1.44296352221631E-18   5.15421880929085E-16   7.70038091273950E-17   0.00000000000000E+00   0.00000000000000E+00
      0.00000000000000E+00   0.00000000000000E+00  -3.76482410616134E-16  -1.38939470312950E-16  -5.15421880929084E-16
     -7.70038091273951E-17
      3.64275555555556E-01
      3.64275555555556E-01   3.64275555555556E-01   0.00000000000000E+00   0.00000000000000E+00   5.44361869463287E-16
      1.39868178324051E-18   5.45760551246527E-16   7.88178504343253E-17   0.00000000000000E+00   0.00000000000000E+00
      0.00000000000000E+00   0.00000000000000E+00  -3.91863524817516E-16  -1.53897026429012E-16  -5.45760551246527E-16
     -7.88178504343252E-17
      4.14275555555556E-01
      4.14275555555556E-01   4.14275555555556E-01   0.00000000000000E+00   0.00000000000000E+00   5.76392069078499E-16
      1.43285378940088E-18   5.77824922867900E-16   8.06091630947081E-17   0.00000000000000E+00   0.00000000000000E+00
      0.00000000000000E+00   0.00000000000000E+00  -4.09483604791648E-16  -1.68341318076252E-16  -5.77824922867900E-16
     -8.06091630947080E-17
      4.64275555555555E-01
      4.64275555555555E-01   4.64275555555555E-01   0.00000000000000E+00   0.00000000000000E+00   6.08212312451633E-16
      1.42452616094412E-18   6.09636838612577E-16   8.23778733109069E-17   0.00000000000000E+00   0.00000000000000E+00
      0.00000000000000E+00   0.00000000000000E+00  -4.27429753756393E-16  -1.82207084856183E-16  -6.09636838612577E-16
     -8.23778733109070E-17
      5.14275555555555E-01
      5.14275555555555E-01   5.14275555555555E-01   0.00000000000000E+00   0.00000000000000E+00   6.40684626222328E-16
      1.50733541205139E-18   6.42191961634379E-16   8.41241546784658E-17   0.00000000000000E+00   0.00000000000000E+00
      0.00000000000000E+00   0.00000000000000E+00  -4.46504482023624E-16  -1.95687479610754E-16  -6.42191961634379E-16
     -8.41241546784658E-17
      5.64275555555556E-01
      5.64275555555556E-01   5.64275555555556E-01   0.00000000000000E+00   0.00000000000000E+00   6.73998028775194E-16
      6.46405881471457E-19   6.74644434656666E-16   8.58482390870674E-17   0.00000000000000E+00   0.00000000000000E+00
      0.00000000000000E+00   0.00000000000000E+00  -4.66816736188802E-16  -2.07827698467863E-16  -6.74644434656665E-16
     -8.58482390870674E-17
      6.14275555555556E-01
      6.14275555555556E-01   6.14275555555556E-01   0.00000000000000E+00   0.00000000000000E+00   7.08482369312276E-16
      1.63917798562826E-18   7.10121547297904E-16   8.75504170146157E-17   0.00000000000000E+00   0.00000000000000E+00
      0.00000000000000E+00   0.00000000000000E+00  -4.88766020064366E-16  -2.21355527233538E-16  -7.10121547297904E-16
     -8.75504170146155E-17
      6.64275555555556E-01
      6.64275555555556E-01   6.64275555555556E-01   0.00000000000000E+00   0.00000000000000E+00   7.43521494742240E-16
      3.90637628539851E-19   7.43912132370780E-16   8.92310302294418E-17   0.00000000000000E+00   0.00000000000000E+00
      0.00000000000000E+00   0.00000000000000E+00  -5.11534183421090E-16  -2.32377948949689E-16  -7.43912132370779E-16
     -8.92310302294418E-17
      6.89275555555556E-01
      6.89275555555556E-01   6.89275555555556E-01   0.00000000000000E+00   0.00000000000000E+00   7.61725210520103E-16
      1.71452414396295E-18   7.63439734664066E-16   9.00633683499891E-17   0.00000000000000E+00   0.00000000000000E+00
      0.00000000000000E+00   0.00000000000000E+00  -5.23723580691856E-16  -2.39716153972209E-16  -7.63439734664065E-16
     -9.00633683499891E-17
      7.35275555555556E-01
      7.35275555555556E-01   7.35275555555556E-01   0.00000000000000E+00   0.00000000000000E+00   7.96012113958835E-16
      5.19057818933831E-19   7.96531171777769E-16   9.15812045487417E-17   0.00000000000000E+00   0.00000000000000E+00
      0.00000000000000E+00   0.00000000000000E+00  -5.47242125725322E-16  -2.49289046052447E-16  -7.96531171777769E-16
     -9.15812045487417E-17
      7.85275555555556E-01
      7.85275555555556E-01   7.85275555555556E-01   0.00000000000000E+00   0.00000000000000E+00   8.34815904525374E-16
      5.93088093865739E-19   8.35408992619239E-16   9.32112724887378E-17   0.00000000000000E+00   0.00000000000000E+00
      0.00000000000000E+00   0.00000000000000E+00  -5.74658392827595E-16  -2.60750599791643E-16  -8.35408992619238E-16
     -9.32112724887378E-17
      8.35275555555556E-01
      8.35275555555556E-01   8.35275555555556E-01   0.00000000000000E+00   0.00000000000000E+00   8.75565310060616E-16
      1.20595646044195E-18   8.76771266521058E-16   9.48211938643156E-17   0.00000000000000E+00   0.00000000000000E+00
      0.00000000000000E+00   0.00000000000000E+00  -6.04124938576589E-16  -2.72646327944469E-16  -8.76771266521059E-16
     -9.48211938643158E-17
      8.85275555555556E-01
      8.85275555555556E-01   8.85275555555556E-01   0.00000000000000E+00   0.00000000000000E+00   9.18231171197550E-16
      1.45607771200455E-18   9.19687248909554E-16   9.64114253717559E-17   0.00000000000000E+00   0.00000000000000E+00
      0.00000000000000E+00   0.00000000000000E+00  -6.35892056966747E-16  -2.83795191942807E-16  -9.19687248909554E-16
     -9.64114253717559E-17
      9.35275555555556E-01
      9.35275555555556E-01   9.35275555555556E-01   0.00000000000000E+00   0.00000000000000E+00   9.62911173002202E-16
      1.45530596585086E-18   9.64366478968053E-16   9.79824373916730E-17   0.00000000000000E+00   0.00000000000000E+00
      0.00000000000000E+00   0.00000000000000E+00  -6.70177075183341E-16  -2.94189403784713E-16  -9.64366478968054E-16
     -9.79824373916731E-17
      9.85275555555556E-01
      9.85275555555556E-01   9.85275555555556E-01   0.00000000000000E+00   0.00000000000000E+00   1.01038917986096E-15
      1.44618213202901E-18   1.01183536199299E-15   9.95347139222568E-17   0.00000000000000E+00   0.00000000000000E+00
      0.00000000000000E+00   0.00000000000000E+00  -7.07296153369615E-16  -3.04539208623372E-16  -1.01183536199299E-15
     -9.95347139222568E-17
      1.00000000000000E+00
      1.00000000000000E+00   1.00000000000000E+00   0.00000000000000E+00   0.00000000000000E+00   1.02495988512805E-15
      1.44665107288026E-18   1.02640653620093E-15   9.99883431145147E-17   0.00000000000000E+00   0.00000000000000E+00
      0.00000000000000E+00   0.00000000000000E+00  -7.18779891565000E-16  -3.07626644635934E-16  -1.02640653620093E-15
     -9.99883431145145E-17
}
