DF-ISE text

Info {
  version   = 1.0
  type      = xyplot
  datasets  = [
    "time"
    "top OuterVoltage" "top InnerVoltage" "top QuasiFermiPotential" "top DisplacementCurrent" "top eCurrent"
    "top hCurrent" "top TotalCurrent" "top Charge" "bottom OuterVoltage" "bottom InnerVoltage"
    "bottom QuasiFermiPotential" "bottom DisplacementCurrent" "bottom eCurrent" "bottom hCurrent" "bottom TotalCurrent"
    "bottom Charge" ]
  functions = [
    Time
    OuterVoltage InnerVoltage QuasiFermiPotential DisplacementCurrent eCurrent
    hCurrent TotalCurrent Charge OuterVoltage InnerVoltage
    QuasiFermiPotential DisplacementCurrent eCurrent hCurrent TotalCurrent
    Charge ]
}

Data {
      0.00000000000000E+00
      0.00000000000000E+00   0.00000000000000E+00   0.00000000000000E+00   0.00000000000000E+00  -1.93877251234732E-21
     -8.15957025288841E-31  -1.93877251316328E-21   7.89017187814586E-17   0.00000000000000E+00   0.00000000000000E+00
      0.00000000000000E+00   0.00000000000000E+00   1.93877251224601E-21   9.17271151928188E-31   1.93877251316328E-21
     -7.89017187814586E-17
      0.00000000000000E+00
      0.00000000000000E+00   0.00000000000000E+00   0.00000000000000E+00   0.00000000000000E+00   1.14812902395684E-20
      7.37369553952689E-32   1.14812902396421E-20   7.89017187887025E-17   0.00000000000000E+00   0.00000000000000E+00
      0.00000000000000E+00   0.00000000000000E+00  -1.14812902395299E-20  -1.12228218528097E-31  -1.14812902396422E-20
     -7.89017187887026E-17
      1.00000000000000E-02
      1.00000000000000E-02   1.00000000000000E-02   0.00000000000000E+00   0.00000000000000E+00   1.11150580800389E-16
      2.41209782265539E-20   1.11174701778616E-16   7.92247765143281E-17   0.00000000000000E+00   0.00000000000000E+00
      0.00000000000000E+00   0.00000000000000E+00  -1.01116456185439E-16  -1.00582455931767E-17  -1.11174701778616E-16
     -7.92247765143280E-17
      2.89333333333333E-02
      2.89333333333333E-02   2.89333333333333E-02   0.00000000000000E+00   0.00000000000000E+00   2.40107819278697E-16
      5.02247433553965E-20   2.40158044022052E-16   7.98343261132899E-17   0.00000000000000E+00   0.00000000000000E+00
      0.00000000000000E+00   0.00000000000000E+00  -2.14657342272944E-16  -2.55007017491080E-17  -2.40158044022052E-16
     -7.98343261132897E-17
      4.63520000000000E-02
      4.63520000000000E-02   4.63520000000000E-02   0.00000000000000E+00   0.00000000000000E+00   3.01464493674740E-16
      7.56810265315422E-20   3.01540174701271E-16   8.03927035543119E-17   0.00000000000000E+00   0.00000000000000E+00
      0.00000000000000E+00   0.00000000000000E+00  -2.64696815809189E-16  -3.68433588920817E-17  -3.01540174701271E-16
     -8.03927035543120E-17
      6.26094222222222E-02
      6.26094222222222E-02   6.26094222222222E-02   0.00000000000000E+00   0.00000000000000E+00   3.42007007531334E-16
      8.45953075830462E-20   3.42091602838917E-16   8.09117997460248E-17   0.00000000000000E+00   0.00000000000000E+00
      0.00000000000000E+00   0.00000000000000E+00  -2.96282231291593E-16  -4.58093715473243E-17  -3.42091602838917E-16
     -8.09117997460248E-17
      7.77830162962963E-02
      7.77830162962963E-02   7.77830162962963E-02   0.00000000000000E+00   0.00000000000000E+00   3.65257269495700E-16
      6.97580185152350E-20   3.65327027514215E-16   8.13945195662513E-17   0.00000000000000E+00   0.00000000000000E+00
      0.00000000000000E+00   0.00000000000000E+00  -3.12105573776556E-16  -5.32214537376600E-17  -3.65327027514216E-16
     -8.13945195662513E-17
      9.19450374320987E-02
      9.19450374320987E-02   9.19450374320987E-02   0.00000000000000E+00   0.00000000000000E+00   3.81520761258526E-16
     -5.83818843739241E-20   3.81462379374152E-16   8.18435333555968E-17   0.00000000000000E+00   0.00000000000000E+00
      0.00000000000000E+00   0.00000000000000E+00  -3.21994980707824E-16  -5.94673986663275E-17  -3.81462379374152E-16
     -8.18435333555969E-17
      1.18380810218930E-01
      1.18380810218930E-01   1.18380810218930E-01   0.00000000000000E+00   0.00000000000000E+00   4.04877784071812E-16
      7.16755384226209E-20   4.04949459610234E-16   8.26778072913316E-17   0.00000000000000E+00   0.00000000000000E+00
      0.00000000000000E+00   0.00000000000000E+00  -3.34410121817039E-16  -7.05393377931952E-17  -4.04949459610234E-16
     -8.26778072913317E-17
      1.39176951477904E-01
      1.39176951477904E-01   1.39176951477904E-01   0.00000000000000E+00   0.00000000000000E+00   4.20299796213341E-16
      7.11452520058902E-20   4.20370941465347E-16   8.33306002196744E-17   0.00000000000000E+00   0.00000000000000E+00
      0.00000000000000E+00   0.00000000000000E+00  -3.41793246688371E-16  -7.85776947769763E-17  -4.20370941465347E-16
     -8.33306002196745E-17
      1.58309401436160E-01
      1.58309401436160E-01   1.58309401436160E-01   0.00000000000000E+00   0.00000000000000E+00   4.33558170128292E-16
      7.00229902591382E-20   4.33628193118551E-16   8.39284892009584E-17   0.00000000000000E+00   0.00000000000000E+00
      0.00000000000000E+00   0.00000000000000E+00  -3.47955336753522E-16  -8.56728563650291E-17  -4.33628193118551E-16
     -8.39284892009585E-17
      1.75911255397756E-01
      1.75911255397756E-01   1.75911255397756E-01   0.00000000000000E+00   0.00000000000000E+00   4.46168648417229E-16
      2.08257064744338E-19   4.46376905481974E-16   8.44763091306630E-17   0.00000000000000E+00   0.00000000000000E+00
      0.00000000000000E+00   0.00000000000000E+00  -3.54232160952052E-16  -9.21447445299215E-17  -4.46376905481974E-16
     -8.44763091306633E-17
      1.92339652428578E-01
      1.92339652428578E-01   1.92339652428578E-01   0.00000000000000E+00   0.00000000000000E+00   4.56260886120288E-16
      1.08885009749664E-19   4.56369771130038E-16   8.49856964338175E-17   0.00000000000000E+00   0.00000000000000E+00
      0.00000000000000E+00   0.00000000000000E+00  -3.58554224879980E-16  -9.78155462500589E-17  -4.56369771130039E-16
     -8.49856964338176E-17
      2.07672822990679E-01
      2.07672822990679E-01   2.07672822990679E-01   0.00000000000000E+00   0.00000000000000E+00   4.66310597867177E-16
      7.17248688921935E-20   4.66382322736069E-16   8.54594779772918E-17   0.00000000000000E+00   0.00000000000000E+00
      0.00000000000000E+00   0.00000000000000E+00  -3.63327024868531E-16  -1.03055297867538E-16  -4.66382322736070E-16
     -8.54594779772918E-17
      2.21983782181973E-01
      2.21983782181973E-01   2.21983782181973E-01   0.00000000000000E+00   0.00000000000000E+00   4.75746664280839E-16
     -3.38992416177402E-21   4.75743274356678E-16   8.59002539718560E-17   0.00000000000000E+00   0.00000000000000E+00
      0.00000000000000E+00   0.00000000000000E+00  -3.67922078481321E-16  -1.07821195875356E-16  -4.75743274356678E-16
     -8.59002539718559E-17
      2.48697572672389E-01
      2.48697572672389E-01   2.48697572672389E-01   0.00000000000000E+00   0.00000000000000E+00   4.93236527448383E-16
      7.19582189708022E-20   4.93308485667354E-16   8.67194099286714E-17   0.00000000000000E+00   0.00000000000000E+00
      0.00000000000000E+00   0.00000000000000E+00  -3.76575588454152E-16  -1.16732897213202E-16  -4.93308485667354E-16
     -8.67194099286714E-17
      2.69356237318311E-01
      2.69356237318311E-01   2.69356237318311E-01   0.00000000000000E+00   0.00000000000000E+00   5.06714411301580E-16
      7.23828592738110E-20   5.06786794160854E-16   8.73496919248945E-17   0.00000000000000E+00   0.00000000000000E+00
      0.00000000000000E+00   0.00000000000000E+00  -3.83383345830845E-16  -1.23403448330010E-16  -5.06786794160854E-16
     -8.73496919248944E-17
      2.88086759930613E-01
      2.88086759930613E-01   2.88086759930613E-01   0.00000000000000E+00   0.00000000000000E+00   5.19038608119096E-16
      6.94600282494345E-20   5.19108068147345E-16   8.79187660919863E-17   0.00000000000000E+00   0.00000000000000E+00
      0.00000000000000E+00   0.00000000000000E+00  -3.89778330834486E-16  -1.29329737312858E-16  -5.19108068147345E-16
     -8.79187660919864E-17
      3.05318840733931E-01
      3.05318840733931E-01   3.05318840733931E-01   0.00000000000000E+00   0.00000000000000E+00   5.30383529831523E-16
      2.16187394515326E-19   5.30599717226038E-16   8.84403341617161E-17   0.00000000000000E+00   0.00000000000000E+00
      0.00000000000000E+00   0.00000000000000E+00  -3.95760785127824E-16  -1.34838932098214E-16  -5.30599717226038E-16
     -8.84403341617161E-17
      3.21402116150362E-01
      3.21402116150362E-01   3.21402116150362E-01   0.00000000000000E+00   0.00000000000000E+00   5.41036899801419E-16
      7.15320701505215E-20   5.41108431871569E-16   8.89254342749353E-17   0.00000000000000E+00   0.00000000000000E+00
      0.00000000000000E+00   0.00000000000000E+00  -4.01481308153339E-16  -1.39627123718230E-16  -5.41108431871569E-16
     -8.89254342749354E-17
      3.36413173205697E-01
      3.36413173205697E-01   3.36413173205697E-01   0.00000000000000E+00   0.00000000000000E+00   5.50986280857527E-16
      7.10826932720301E-20   5.51057363550799E-16   8.93767283134924E-17   0.00000000000000E+00   0.00000000000000E+00
      0.00000000000000E+00   0.00000000000000E+00  -4.06885199620527E-16  -1.44172163930272E-16  -5.51057363550799E-16
     -8.93767283134924E-17
      3.50423493124009E-01
      3.50423493124009E-01   3.50423493124009E-01   0.00000000000000E+00   0.00000000000000E+00   5.60285753965801E-16
      3.35365163924542E-21   5.60289107617440E-16   8.97966684755672E-17   0.00000000000000E+00   0.00000000000000E+00
      0.00000000000000E+00   0.00000000000000E+00  -4.11989354722718E-16  -1.48299752894723E-16  -5.60289107617441E-16
     -8.97966684755671E-17
      3.63499791714434E-01
      3.63499791714434E-01   3.63499791714434E-01   0.00000000000000E+00   0.00000000000000E+00   5.69022740052242E-16
      6.79388913395773E-20   5.69090678943581E-16   9.01875159838278E-17   0.00000000000000E+00   0.00000000000000E+00
      0.00000000000000E+00   0.00000000000000E+00  -4.16863259988270E-16  -1.52227418955311E-16  -5.69090678943581E-16
     -9.01875159838277E-17
      3.75529986417625E-01
      3.75529986417625E-01   3.75529986417625E-01   0.00000000000000E+00   0.00000000000000E+00   5.77095878569980E-16
      6.96598702512421E-20   5.77165538440231E-16   9.05461664715206E-17   0.00000000000000E+00   0.00000000000000E+00
      0.00000000000000E+00   0.00000000000000E+00  -4.21418798888268E-16  -1.55746739551963E-16  -5.77165538440232E-16
     -9.05461664715207E-17
      3.97986349863582E-01
      3.97986349863582E-01   3.97986349863582E-01   0.00000000000000E+00   0.00000000000000E+00   5.92283152254847E-16
      6.16540486535672E-20   5.92344806303500E-16   9.12132831492702E-17   0.00000000000000E+00   0.00000000000000E+00
      0.00000000000000E+00   0.00000000000000E+00  -4.30137262415926E-16  -1.62207543887575E-16  -5.92344806303501E-16
     -9.12132831492703E-17
      4.18346786054583E-01
      4.18346786054583E-01   4.18346786054583E-01   0.00000000000000E+00   0.00000000000000E+00   6.06075877047746E-16
      7.25086801503590E-20   6.06148385727896E-16   9.18154979882189E-17   0.00000000000000E+00   0.00000000000000E+00
      0.00000000000000E+00   0.00000000000000E+00  -4.38159604792596E-16  -1.67988780935300E-16  -6.06148385727896E-16
     -9.18154979882190E-17
      4.36806914867757E-01
      4.36806914867757E-01   4.36806914867757E-01   0.00000000000000E+00   0.00000000000000E+00   6.18718592591866E-16
      7.30782763485610E-20   6.18791670868214E-16   9.23593596798705E-17   0.00000000000000E+00   0.00000000000000E+00
      0.00000000000000E+00   0.00000000000000E+00  -4.45634963065787E-16  -1.73156707802426E-16  -6.18791670868214E-16
     -9.23593596798705E-17
      4.53790233375877E-01
      4.53790233375877E-01   4.53790233375877E-01   0.00000000000000E+00   0.00000000000000E+00   6.29352873547302E-16
      2.09981567331789E-19   6.29562855114634E-16   9.28579262534635E-17   0.00000000000000E+00   0.00000000000000E+00
      0.00000000000000E+00   0.00000000000000E+00  -4.51568064833686E-16  -1.77994790280947E-16  -6.29562855114634E-16
     -9.28579262534637E-17
      4.69641330650122E-01
      4.69641330650122E-01   4.69641330650122E-01   0.00000000000000E+00   0.00000000000000E+00   6.41510514025936E-16
      9.63440843212462E-20   6.41606858110257E-16   9.33217240469385E-17   0.00000000000000E+00   0.00000000000000E+00
      0.00000000000000E+00   0.00000000000000E+00  -4.59389728304305E-16  -1.82217129805952E-16  -6.41606858110257E-16
     -9.33217240469384E-17
      4.84435688106084E-01
      4.84435688106084E-01   4.84435688106084E-01   0.00000000000000E+00   0.00000000000000E+00   6.51976358877874E-16
      7.11300229920879E-20   6.52047488900866E-16   9.37532791854733E-17   0.00000000000000E+00   0.00000000000000E+00
      0.00000000000000E+00   0.00000000000000E+00  -4.65859807580214E-16  -1.86187681320653E-16  -6.52047488900866E-16
     -9.37532791854732E-17
      4.98243755064983E-01
      4.98243755064983E-01   4.98243755064983E-01   0.00000000000000E+00   0.00000000000000E+00   6.61733598290513E-16
      6.92264830190858E-20   6.61802824773532E-16   9.41549205563241E-17   0.00000000000000E+00   0.00000000000000E+00
      0.00000000000000E+00   0.00000000000000E+00  -4.71933841535456E-16  -1.89868983238075E-16  -6.61802824773531E-16
     -9.41549205563238E-17
      5.23650598269355E-01
      5.23650598269355E-01   5.23650598269355E-01   0.00000000000000E+00   0.00000000000000E+00   6.78954549117486E-16
      7.40647367391894E-20   6.79028613854225E-16   9.48910834917864E-17   0.00000000000000E+00   0.00000000000000E+00
      0.00000000000000E+00   0.00000000000000E+00  -4.82480652697522E-16  -1.96547961156704E-16  -6.79028613854226E-16
     -9.48910834917864E-17
      5.46347378198595E-01
      5.46347378198595E-01   5.46347378198595E-01   0.00000000000000E+00   0.00000000000000E+00   6.96495707464421E-16
      7.24268767032307E-20   6.96568134341124E-16   9.55456258495367E-17   0.00000000000000E+00   0.00000000000000E+00
      0.00000000000000E+00   0.00000000000000E+00  -4.94140107395294E-16  -2.02428026945831E-16  -6.96568134341125E-16
     -9.55456258495368E-17
      5.66623168268716E-01
      5.66623168268716E-01   5.66623168268716E-01   0.00000000000000E+00   0.00000000000000E+00   7.11418330325569E-16
      5.66942084732207E-20   7.11475024534042E-16   9.61279095725899E-17   0.00000000000000E+00   0.00000000000000E+00
      0.00000000000000E+00   0.00000000000000E+00  -5.03852206313759E-16  -2.07622818220284E-16  -7.11475024534043E-16
     -9.61279095725900E-17
      5.85006551265625E-01
      5.85006551265625E-01   5.85006551265625E-01   0.00000000000000E+00   0.00000000000000E+00   7.25252787294131E-16
      8.05765320708952E-20   7.25333363826202E-16   9.66538781793663E-17   0.00000000000000E+00   0.00000000000000E+00
      0.00000000000000E+00   0.00000000000000E+00  -5.13002615672001E-16  -2.12330748154200E-16  -7.25333363826201E-16
     -9.66538781793661E-17
      6.01919263622782E-01
      6.01919263622782E-01   6.01919263622782E-01   0.00000000000000E+00   0.00000000000000E+00   7.04424822078448E-16
      1.32099035800157E-19   7.04556921114249E-16   9.71361325533476E-17   0.00000000000000E+00   0.00000000000000E+00
      0.00000000000000E+00   0.00000000000000E+00  -4.87914336126520E-16  -2.16642584987727E-16  -7.04556921114248E-16
     -9.71361325533475E-17
      6.17704461822795E-01
      6.17704461822795E-01   6.17704461822795E-01   0.00000000000000E+00   0.00000000000000E+00   7.50134224441077E-16
      7.81646151975298E-20   7.50212389056275E-16   9.75848347821030E-17   0.00000000000000E+00   0.00000000000000E+00
      0.00000000000000E+00   0.00000000000000E+00  -5.29702689149244E-16  -2.20509699907030E-16  -7.50212389056274E-16
     -9.75848347821029E-17
      6.32437313476140E-01
      6.32437313476140E-01   6.32437313476140E-01   0.00000000000000E+00   0.00000000000000E+00   7.61711034401941E-16
      7.23351633968542E-20   7.61783369565337E-16   9.80024130736108E-17   0.00000000000000E+00   0.00000000000000E+00
      0.00000000000000E+00   0.00000000000000E+00  -5.37672669294920E-16  -2.24110700270418E-16  -7.61783369565338E-16
     -9.80024130736108E-17
      6.46187975019262E-01
      6.46187975019262E-01   6.46187975019262E-01   0.00000000000000E+00   0.00000000000000E+00   7.69427889414315E-16
      1.07604411507559E-18   7.70503933529391E-16   9.83911070281010E-17   0.00000000000000E+00   0.00000000000000E+00
      0.00000000000000E+00   0.00000000000000E+00  -5.42066277798256E-16  -2.28437655731135E-16  -7.70503933529391E-16
     -9.83911070281010E-17
      6.72222560874241E-01
      6.72222560874241E-01   6.72222560874241E-01   0.00000000000000E+00   0.00000000000000E+00   7.93220174977035E-16
      7.17815000088624E-20   7.93291956477044E-16   9.91242965569984E-17   0.00000000000000E+00   0.00000000000000E+00
      0.00000000000000E+00   0.00000000000000E+00  -5.59648318259627E-16  -2.33643638217416E-16  -7.93291956477043E-16
     -9.91242965569985E-17
      6.95132996426622E-01
      6.95132996426622E-01   6.95132996426622E-01   0.00000000000000E+00   0.00000000000000E+00   8.11748523871495E-16
      8.60966728255528E-20   8.11834620544321E-16   9.97665739764215E-17   0.00000000000000E+00   0.00000000000000E+00
      0.00000000000000E+00   0.00000000000000E+00  -5.72753672004541E-16  -2.39080948539780E-16  -8.11834620544320E-16
     -9.97665739764215E-17
      7.15599652186749E-01
      7.15599652186749E-01   7.15599652186749E-01   0.00000000000000E+00   0.00000000000000E+00   8.28828728049773E-16
      6.50307414665355E-20   8.28893758791240E-16   1.00338052483167E-16   0.00000000000000E+00   0.00000000000000E+00
      0.00000000000000E+00   0.00000000000000E+00  -5.84999972572820E-16  -2.43893786218419E-16  -8.28893758791239E-16
     -1.00338052483167E-16
      7.34156086742597E-01
      7.34156086742597E-01   7.34156086742597E-01   0.00000000000000E+00   0.00000000000000E+00   8.44838346766572E-16
      7.23115622989715E-20   8.44910658328871E-16   1.00854347199100E-16   0.00000000000000E+00   0.00000000000000E+00
      0.00000000000000E+00   0.00000000000000E+00  -5.96645415567334E-16  -2.48265242761539E-16  -8.44910658328872E-16
     -1.00854347199100E-16
      7.50980587406566E-01
      7.50980587406566E-01   7.50980587406566E-01   0.00000000000000E+00   0.00000000000000E+00   8.59444614205281E-16
      7.18850098469871E-20   8.59516499215128E-16   1.01320952886609E-16   0.00000000000000E+00   0.00000000000000E+00
      0.00000000000000E+00   0.00000000000000E+00  -6.07332422926765E-16  -2.52184076288365E-16  -8.59516499215130E-16
     -1.01320952886609E-16
      7.66459128017418E-01
      7.66459128017418E-01   7.66459128017418E-01   0.00000000000000E+00   0.00000000000000E+00   8.73050114968998E-16
      1.68021392873962E-19   8.73218136361872E-16   1.01748980902907E-16   0.00000000000000E+00   0.00000000000000E+00
      0.00000000000000E+00   0.00000000000000E+00  -6.17383537892313E-16  -2.55834598469558E-16  -8.73218136361871E-16
     -1.01748980902907E-16
      7.80905765920880E-01
      7.80905765920880E-01   7.80905765920880E-01   0.00000000000000E+00   0.00000000000000E+00   8.86005113757797E-16
      7.14776035927776E-20   8.86076591361390E-16   1.02147403111098E-16   0.00000000000000E+00   0.00000000000000E+00
      0.00000000000000E+00   0.00000000000000E+00  -6.27077208887958E-16  -2.58999382473430E-16  -8.86076591361389E-16
     -1.02147403111098E-16
      8.06717092308398E-01
      8.06717092308398E-01   8.06717092308398E-01   0.00000000000000E+00   0.00000000000000E+00   9.11999404130793E-16
      7.19383278321092E-20   9.12071342458625E-16   1.02856704636209E-16   0.00000000000000E+00   0.00000000000000E+00
      0.00000000000000E+00   0.00000000000000E+00  -6.47383094027363E-16  -2.64688248431260E-16  -9.12071342458624E-16
     -1.02856704636209E-16
      8.29431059529414E-01
      8.29431059529414E-01   8.29431059529414E-01   0.00000000000000E+00   0.00000000000000E+00   9.30339355463186E-16
      1.03800035190563E-19   9.30443155498376E-16   1.03478221689654E-16   0.00000000000000E+00   0.00000000000000E+00
      0.00000000000000E+00   0.00000000000000E+00  -6.60829152148845E-16  -2.69614003349532E-16  -9.30443155498377E-16
     -1.03478221689654E-16
      8.49722203580188E-01
      8.49722203580188E-01   8.49722203580188E-01   0.00000000000000E+00   0.00000000000000E+00   9.49939020056455E-16
      7.20507291776217E-20   9.50011070785633E-16   1.04031359147935E-16   0.00000000000000E+00   0.00000000000000E+00
      0.00000000000000E+00   0.00000000000000E+00  -6.76091888226819E-16  -2.73919182558815E-16  -9.50011070785634E-16
     -1.04031359147934E-16
      8.67848958932213E-01
      8.67848958932213E-01   8.67848958932213E-01   0.00000000000000E+00   0.00000000000000E+00   9.66739763298620E-16
      6.36531088678388E-20   9.66803416407488E-16   1.04523851708292E-16   0.00000000000000E+00   0.00000000000000E+00
      0.00000000000000E+00   0.00000000000000E+00  -6.89008528269458E-16  -2.77794888138030E-16  -9.66803416407489E-16
     -1.04523851708292E-16
      8.84525573856076E-01
      8.84525573856076E-01   8.84525573856076E-01   0.00000000000000E+00   0.00000000000000E+00   9.84425472783008E-16
      7.10700010061998E-20   9.84496542784014E-16   1.04975590017618E-16   0.00000000000000E+00   0.00000000000000E+00
      0.00000000000000E+00   0.00000000000000E+00  -7.03096316915277E-16  -2.81400225868734E-16  -9.84496542784011E-16
     -1.04975590017618E-16
      8.99868059586030E-01
      8.99868059586030E-01   8.99868059586030E-01   0.00000000000000E+00   0.00000000000000E+00   9.99977372251479E-16
      7.25060906962920E-20   1.00004987834218E-15   1.05390054073723E-16   0.00000000000000E+00   0.00000000000000E+00
      0.00000000000000E+00   0.00000000000000E+00  -7.15317207288198E-16  -2.84732671053976E-16  -1.00004987834217E-15
     -1.05390054073723E-16
      9.14187712933987E-01
      9.14187712933987E-01   9.14187712933987E-01   0.00000000000000E+00   0.00000000000000E+00   1.01510750161762E-15
      2.08615349942799E-20   1.01512836315262E-15   1.05775914922810E-16   0.00000000000000E+00   0.00000000000000E+00
      0.00000000000000E+00   0.00000000000000E+00  -7.27328089559457E-16  -2.87800273593160E-16  -1.01512836315262E-15
     -1.05775914922810E-16
      9.27552722725413E-01
      9.27552722725413E-01   9.27552722725413E-01   0.00000000000000E+00   0.00000000000000E+00   1.02938109719508E-15
      1.70492805412539E-19   1.02955159000049E-15   1.06135212255754E-16   0.00000000000000E+00   0.00000000000000E+00
      0.00000000000000E+00   0.00000000000000E+00  -7.38694950091041E-16  -2.90856639909451E-16  -1.02955159000049E-15
     -1.06135212255754E-16
      9.39848531733526E-01
      9.39848531733526E-01   9.39848531733526E-01   0.00000000000000E+00   0.00000000000000E+00   1.04266165769780E-15
      6.91430639619759E-20   1.04273080076176E-15   1.06465055911342E-16   0.00000000000000E+00   0.00000000000000E+00
      0.00000000000000E+00   0.00000000000000E+00  -7.49316343777099E-16  -2.93414456984664E-16  -1.04273080076176E-15
     -1.06465055911342E-16
      9.62800708548669E-01
      9.62800708548669E-01   9.62800708548669E-01   0.00000000000000E+00   0.00000000000000E+00   1.06773544214619E-15
      8.22547751483009E-20   1.06781769692134E-15   1.07078962491048E-16   0.00000000000000E+00   0.00000000000000E+00
      0.00000000000000E+00   0.00000000000000E+00  -7.69488349719819E-16  -2.98329347201522E-16  -1.06781769692134E-15
     -1.07078962491047E-16
      9.81400354274334E-01
      9.81400354274334E-01   9.81400354274334E-01   0.00000000000000E+00   0.00000000000000E+00   1.08643640509252E-15
      6.51942223317338E-20   1.08650159931485E-15   1.07574749826473E-16   0.00000000000000E+00   0.00000000000000E+00
      0.00000000000000E+00   0.00000000000000E+00  -7.84294918901688E-16  -3.02206680413162E-16  -1.08650159931485E-15
     -1.07574749826473E-16
      1.00000000000000E+00
      1.00000000000000E+00   1.00000000000000E+00   0.00000000000000E+00   0.00000000000000E+00   1.10620157899707E-15
      6.56704695881911E-20   1.10626724946666E-15   1.08069034161266E-16   0.00000000000000E+00   0.00000000000000E+00
      0.00000000000000E+00   0.00000000000000E+00  -8.00232878041952E-16  -3.06034371424712E-16  -1.10626724946666E-15
     -1.08069034161266E-16
}
