DF-ISE text

Info {
  version   = 1.0
  type      = xyplot
  datasets  = [
    "time"
    "top OuterVoltage" "top InnerVoltage" "top QuasiFermiPotential" "top DisplacementCurrent" "top eCurrent"
    "top hCurrent" "top TotalCurrent" "top Charge" "bottom OuterVoltage" "bottom InnerVoltage"
    "bottom QuasiFermiPotential" "bottom DisplacementCurrent" "bottom eCurrent" "bottom hCurrent" "bottom TotalCurrent"
    "bottom Charge" ]
  functions = [
    Time
    OuterVoltage InnerVoltage QuasiFermiPotential DisplacementCurrent eCurrent
    hCurrent TotalCurrent Charge OuterVoltage InnerVoltage
    QuasiFermiPotential DisplacementCurrent eCurrent hCurrent TotalCurrent
    Charge ]
}

Data {
      0.00000000000000E+00
      0.00000000000000E+00   0.00000000000000E+00   0.00000000000000E+00   0.00000000000000E+00   6.34394898252707E-22
     -2.05254887954284E-31   6.34394898047452E-22   1.06031414615236E-16   0.00000000000000E+00   0.00000000000000E+00
      0.00000000000000E+00   0.00000000000000E+00  -6.34394898297092E-22   2.49643621086253E-31  -6.34394898047448E-22
     -1.06031414615236E-16
      0.00000000000000E+00
      0.00000000000000E+00   0.00000000000000E+00   0.00000000000000E+00   0.00000000000000E+00  -6.47634268744454E-18
      1.23225057411385E-29  -6.47634268743222E-18   1.06031396517841E-16   0.00000000000000E+00   0.00000000000000E+00
      0.00000000000000E+00   0.00000000000000E+00   6.47634269047528E-18  -3.04307940877555E-27   6.47634268743220E-18
     -1.06031396517841E-16
      1.00000000000000E-02
      1.00000000000000E-02   1.00000000000000E-02   0.00000000000000E+00   0.00000000000000E+00   1.24043336805269E-16
      2.69827385327159E-21   1.24046035079122E-16   1.06274681805848E-16   0.00000000000000E+00   0.00000000000000E+00
      0.00000000000000E+00   0.00000000000000E+00  -1.14015041734697E-16  -1.00309933444251E-17  -1.24046035079122E-16
     -1.06274681805848E-16
      2.89333333333333E-02
      2.89333333333333E-02   2.89333333333333E-02   0.00000000000000E+00   0.00000000000000E+00   2.65997754596894E-16
      5.94495351506002E-21   2.66003699550409E-16   1.06734504336624E-16   0.00000000000000E+00   0.00000000000000E+00
      0.00000000000000E+00   0.00000000000000E+00  -2.40561115867295E-16  -2.54425836831141E-17  -2.66003699550409E-16
     -1.06734504336624E-16
      4.63520000000000E-02
      4.63520000000000E-02   4.63520000000000E-02   0.00000000000000E+00   0.00000000000000E+00   3.40468623867822E-16
      7.00621438314176E-21   3.40475630082205E-16   1.07156626320509E-16   0.00000000000000E+00   0.00000000000000E+00
      0.00000000000000E+00   0.00000000000000E+00  -3.03719771112804E-16  -3.67558589694006E-17  -3.40475630082204E-16
     -1.07156626320509E-16
      6.23771733333333E-02
      6.23771733333333E-02   6.23771733333333E-02   0.00000000000000E+00   0.00000000000000E+00   3.44287945773139E-16
      3.18053582836526E-20   3.44319751131423E-16   1.07544210481021E-16   0.00000000000000E+00   0.00000000000000E+00
      0.00000000000000E+00   0.00000000000000E+00  -2.98706638773268E-16  -4.56131123581548E-17  -3.44319751131423E-16
     -1.07544210481021E-16
      7.73340017777778E-02
      7.73340017777778E-02   7.73340017777778E-02   0.00000000000000E+00   0.00000000000000E+00   4.04710581579775E-16
     -3.04548615622430E-19   4.04406032964152E-16   1.07905295846725E-16   0.00000000000000E+00   0.00000000000000E+00
      0.00000000000000E+00   0.00000000000000E+00  -3.51796754280179E-16  -5.26092786839736E-17  -4.04406032964152E-16
     -1.07905295846725E-16
      9.12937083259259E-02
      9.12937083259259E-02   9.12937083259259E-02   0.00000000000000E+00   0.00000000000000E+00   4.24656836707421E-16
      8.06250055486701E-21   4.24664899207976E-16   1.08241736938392E-16   0.00000000000000E+00   0.00000000000000E+00
      0.00000000000000E+00   0.00000000000000E+00  -3.65447788251184E-16  -5.92171109567919E-17  -4.24664899207976E-16
     -1.08241736938392E-16
      1.04322767770864E-01
      1.04322767770864E-01   1.04322767770864E-01   0.00000000000000E+00   0.00000000000000E+00   4.38512093841165E-16
      8.37503352671294E-21   4.38520468874691E-16   1.08555252363900E-16   0.00000000000000E+00   0.00000000000000E+00
      0.00000000000000E+00   0.00000000000000E+00  -3.73771013614219E-16  -6.47494552604732E-17  -4.38520468874692E-16
     -1.08555252363900E-16
      1.16483223252807E-01
      1.16483223252807E-01   1.16483223252807E-01   0.00000000000000E+00   0.00000000000000E+00   4.49947593575542E-16
      8.27262141289960E-21   4.49955866196955E-16   1.08847435753783E-16   0.00000000000000E+00   0.00000000000000E+00
      0.00000000000000E+00   0.00000000000000E+00  -3.80268748008407E-16  -6.96871181885481E-17  -4.49955866196955E-16
     -1.08847435753783E-16
      1.27832981702619E-01
      1.27832981702619E-01   1.27832981702619E-01   0.00000000000000E+00   0.00000000000000E+00   4.59770501610984E-16
      8.30236667762049E-21   4.59778803977662E-16   1.09119765646232E-16   0.00000000000000E+00   0.00000000000000E+00
      0.00000000000000E+00   0.00000000000000E+00  -3.85637690882209E-16  -7.41411130954537E-17  -4.59778803977662E-16
     -1.09119765646231E-16
      1.38426089589112E-01
      1.38426089589112E-01   1.38426089589112E-01   0.00000000000000E+00   0.00000000000000E+00   4.68435387807763E-16
      8.31971452462400E-21   4.68443707522288E-16   1.09373614449589E-16   0.00000000000000E+00   0.00000000000000E+00
      0.00000000000000E+00   0.00000000000000E+00  -3.90255113809894E-16  -7.81885937123929E-17  -4.68443707522287E-16
     -1.09373614449589E-16
      1.58482373854203E-01
      1.58482373854203E-01   1.58482373854203E-01   0.00000000000000E+00   0.00000000000000E+00   4.84187694495473E-16
      8.21884333678127E-21   4.84195913338809E-16   1.09853374764851E-16   0.00000000000000E+00   0.00000000000000E+00
      0.00000000000000E+00   0.00000000000000E+00  -3.98573406741851E-16  -8.56225065969580E-17  -4.84195913338810E-16
     -1.09853374764851E-16
      1.73190315648604E-01
      1.73190315648604E-01   1.73190315648604E-01   0.00000000000000E+00   0.00000000000000E+00   4.95504744765261E-16
     -4.03965925611232E-21   4.95500705106005E-16   1.10204484575371E-16   0.00000000000000E+00   0.00000000000000E+00
      0.00000000000000E+00   0.00000000000000E+00  -4.04591073044245E-16  -9.09096320617605E-17  -4.95500705106005E-16
     -1.10204484575371E-16
      1.86917727990044E-01
      1.86917727990044E-01   1.86917727990044E-01   0.00000000000000E+00   0.00000000000000E+00   5.05932876503037E-16
      8.27229071290993E-21   5.05941148793750E-16   1.10531642307774E-16   0.00000000000000E+00   0.00000000000000E+00
      0.00000000000000E+00   0.00000000000000E+00  -4.10170703254150E-16  -9.57704455396002E-17  -5.05941148793750E-16
     -1.10531642307774E-16
      1.99729979508722E-01
      1.99729979508722E-01   1.99729979508722E-01   0.00000000000000E+00   0.00000000000000E+00   5.15705831310141E-16
      8.84549629881611E-21   5.15714676806439E-16   1.10836515396432E-16   0.00000000000000E+00   0.00000000000000E+00
      0.00000000000000E+00   0.00000000000000E+00  -4.15497283387166E-16  -1.00217393419273E-16  -5.15714676806439E-16
     -1.10836515396432E-16
      2.11688080926154E-01
      2.11688080926154E-01   2.11688080926154E-01   0.00000000000000E+00   0.00000000000000E+00   5.24753302503554E-16
      8.34009180322265E-21   5.24761642595357E-16   1.11120650929638E-16   0.00000000000000E+00   0.00000000000000E+00
      0.00000000000000E+00   0.00000000000000E+00  -4.20460729694876E-16  -1.04300912900480E-16  -5.24761642595356E-16
     -1.11120650929638E-16
      2.22848975582425E-01
      2.22848975582425E-01   2.22848975582425E-01   0.00000000000000E+00   0.00000000000000E+00   5.33083084160709E-16
      8.32892250487254E-21   5.33091413083214E-16   1.11385484895749E-16   0.00000000000000E+00   0.00000000000000E+00
      0.00000000000000E+00   0.00000000000000E+00  -4.25033231155218E-16  -1.08058181927997E-16  -5.33091413083214E-16
     -1.11385484895749E-16
      2.33414622523694E-01
      2.33414622523694E-01   2.33414622523694E-01   0.00000000000000E+00   0.00000000000000E+00   5.41328271795769E-16
      8.22415322393129E-21   5.41336495948993E-16   1.11635875100336E-16   0.00000000000000E+00   0.00000000000000E+00
      0.00000000000000E+00   0.00000000000000E+00  -4.29766149711444E-16  -1.11570346237548E-16  -5.41336495948992E-16
     -1.11635875100336E-16
      2.43416768294762E-01
      2.43416768294762E-01   2.43416768294762E-01   0.00000000000000E+00   0.00000000000000E+00   5.49026630979505E-16
      8.34616408206112E-21   5.49034977143587E-16   1.11872625293638E-16   0.00000000000000E+00   0.00000000000000E+00
      0.00000000000000E+00   0.00000000000000E+00  -4.34175488010012E-16  -1.14859489133573E-16  -5.49034977143585E-16
     -1.11872625293639E-16
      2.62354164287985E-01
      2.62354164287985E-01   2.62354164287985E-01   0.00000000000000E+00   0.00000000000000E+00   5.63688731912056E-16
      8.34416622534454E-21   5.63697076078282E-16   1.12320111827590E-16   0.00000000000000E+00   0.00000000000000E+00
      0.00000000000000E+00   0.00000000000000E+00  -4.42693690035138E-16  -1.21003386043145E-16  -5.63697076078283E-16
     -1.12320111827590E-16
      2.79271571375264E-01
      2.79271571375264E-01   2.79271571375264E-01   0.00000000000000E+00   0.00000000000000E+00   5.76725467668306E-16
      8.32493794237202E-21   5.76733792606249E-16   1.12719026342798E-16   0.00000000000000E+00   0.00000000000000E+00
      0.00000000000000E+00   0.00000000000000E+00  -4.50326347496736E-16  -1.26407445109513E-16  -5.76733792606249E-16
     -1.12719026342798E-16
      2.94610020467730E-01
      2.94610020467730E-01   2.94610020467730E-01   0.00000000000000E+00   0.00000000000000E+00   5.88584599951888E-16
      8.32122559645239E-21   5.88592921177484E-16   1.13080025307104E-16   0.00000000000000E+00   0.00000000000000E+00
      0.00000000000000E+00   0.00000000000000E+00  -4.57357657409026E-16  -1.31235263768460E-16  -5.88592921177486E-16
     -1.13080025307105E-16
      3.08721393632799E-01
      3.08721393632799E-01   3.08721393632799E-01   0.00000000000000E+00   0.00000000000000E+00   5.99584341928969E-16
      8.62672045787262E-21   5.99592968649427E-16   1.13411571745434E-16   0.00000000000000E+00   0.00000000000000E+00
      0.00000000000000E+00   0.00000000000000E+00  -4.63982559000590E-16  -1.35610409648838E-16  -5.99592968649428E-16
     -1.13411571745433E-16
      3.21892008586863E-01
      3.21892008586863E-01   3.21892008586863E-01   0.00000000000000E+00   0.00000000000000E+00   6.10026841785624E-16
      8.33067365745652E-21   6.10035172459281E-16   1.13720521368539E-16   0.00000000000000E+00   0.00000000000000E+00
      0.00000000000000E+00   0.00000000000000E+00  -4.70402212204417E-16  -1.39632960254865E-16  -6.10035172459282E-16
     -1.13720521368540E-16
      3.34184582543990E-01
      3.34184582543990E-01   3.34184582543990E-01   0.00000000000000E+00   0.00000000000000E+00   6.19809473487377E-16
      8.34512592909934E-21   6.19817818613306E-16   1.14008445489279E-16   0.00000000000000E+00   0.00000000000000E+00
      0.00000000000000E+00   0.00000000000000E+00  -4.76480237176948E-16  -1.43337581436357E-16  -6.19817818613305E-16
     -1.14008445489279E-16
      3.45657651570642E-01
      3.45657651570642E-01   3.45657651570642E-01   0.00000000000000E+00   0.00000000000000E+00   6.28949153494396E-16
      8.34587630191968E-21   6.28957499370698E-16   1.14276802156574E-16   0.00000000000000E+00   0.00000000000000E+00
      0.00000000000000E+00   0.00000000000000E+00  -4.82200291132127E-16  -1.46757208238570E-16  -6.28957499370697E-16
     -1.14276802156574E-16
      3.56365849328850E-01
      3.56365849328850E-01   3.56365849328850E-01   0.00000000000000E+00   0.00000000000000E+00   6.37624660499291E-16
      8.28773740977791E-21   6.37632948236701E-16   1.14526944807806E-16   0.00000000000000E+00   0.00000000000000E+00
      0.00000000000000E+00   0.00000000000000E+00  -4.87711307781272E-16  -1.49921640455428E-16  -6.37632948236700E-16
     -1.14526944807806E-16
      3.66502943206620E-01
      3.66502943206620E-01   3.66502943206620E-01   0.00000000000000E+00   0.00000000000000E+00   6.45822622743908E-16
      8.34613883910904E-21   6.45830968882747E-16   1.14763459465854E-16   0.00000000000000E+00   0.00000000000000E+00
      0.00000000000000E+00   0.00000000000000E+00  -4.92933132974509E-16  -1.52897835908236E-16  -6.45830968882745E-16
     -1.14763459465854E-16
      3.85695840948532E-01
      3.85695840948532E-01   3.85695840948532E-01   0.00000000000000E+00   0.00000000000000E+00   6.45194072192821E-16
      1.04133573411716E-20   6.45204485550162E-16   1.15210498670829E-16   0.00000000000000E+00   0.00000000000000E+00
      0.00000000000000E+00   0.00000000000000E+00  -4.86714066194349E-16  -1.58490419355813E-16  -6.45204485550162E-16
     -1.15210498670830E-16
      4.02841496264640E-01
      4.02841496264640E-01   4.02841496264640E-01   0.00000000000000E+00   0.00000000000000E+00   6.75516903408666E-16
      1.33265720403392E-20   6.75530229980706E-16   1.15609014236735E-16   0.00000000000000E+00   0.00000000000000E+00
      0.00000000000000E+00   0.00000000000000E+00  -5.12095308563750E-16  -1.63434921416955E-16  -6.75530229980705E-16
     -1.15609014236735E-16
      4.18386890417911E-01
      4.18386890417911E-01   4.18386890417911E-01   0.00000000000000E+00   0.00000000000000E+00   6.88678840674173E-16
      1.15051512875475E-20   6.88690345825460E-16   1.15969653900562E-16   0.00000000000000E+00   0.00000000000000E+00
      0.00000000000000E+00   0.00000000000000E+00  -5.20834541129196E-16  -1.67855804696264E-16  -6.88690345825461E-16
     -1.15969653900562E-16
      4.32688653038921E-01
      4.32688653038921E-01   4.32688653038921E-01   0.00000000000000E+00   0.00000000000000E+00   6.60104557627473E-16
      1.20677978805831E-20   6.60116625425353E-16   1.16300873108891E-16   0.00000000000000E+00   0.00000000000000E+00
      0.00000000000000E+00   0.00000000000000E+00  -4.88252344161414E-16  -1.71864281263939E-16  -6.60116625425353E-16
     -1.16300873108891E-16
      4.46036964818530E-01
      4.46036964818530E-01   4.46036964818530E-01   0.00000000000000E+00   0.00000000000000E+00   7.12366805148585E-16
      8.33428481722754E-21   7.12375139433402E-16   1.16609521125162E-16   0.00000000000000E+00   0.00000000000000E+00
      0.00000000000000E+00   0.00000000000000E+00  -5.36831442681302E-16  -1.75543696752099E-16  -7.12375139433401E-16
     -1.16609521125162E-16
      4.58495389146164E-01
      4.58495389146164E-01   4.58495389146164E-01   0.00000000000000E+00   0.00000000000000E+00   7.23105271678345E-16
      8.34309557163825E-21   7.23113614773916E-16   1.16897167738661E-16   0.00000000000000E+00   0.00000000000000E+00
      0.00000000000000E+00   0.00000000000000E+00  -5.44179919504382E-16  -1.78933695269534E-16  -7.23113614773916E-16
     -1.16897167738661E-16
      4.70123251851957E-01
      4.70123251851957E-01   4.70123251851957E-01   0.00000000000000E+00   0.00000000000000E+00   7.33233247292059E-16
      8.34552342746949E-21   7.33241592815487E-16   1.17165269368268E-16   0.00000000000000E+00   0.00000000000000E+00
      0.00000000000000E+00   0.00000000000000E+00  -5.51178589822506E-16  -1.82063002992980E-16  -7.33241592815486E-16
     -1.17165269368268E-16
      4.80975923710697E-01
      4.80975923710697E-01   4.80975923710697E-01   0.00000000000000E+00   0.00000000000000E+00   7.42775221612904E-16
      8.22507467934868E-21   7.42783446687584E-16   1.17415177798793E-16   0.00000000000000E+00   0.00000000000000E+00
      0.00000000000000E+00   0.00000000000000E+00  -5.57822358514762E-16  -1.84961088172820E-16  -7.42783446687583E-16
     -1.17415177798794E-16
      4.91249786403637E-01
      4.91249786403637E-01   4.91249786403637E-01   0.00000000000000E+00   0.00000000000000E+00   7.51804509180695E-16
      8.34614283621181E-21   7.51812855323532E-16   1.17651474388291E-16   0.00000000000000E+00   0.00000000000000E+00
      0.00000000000000E+00   0.00000000000000E+00  -5.64121378833782E-16  -1.87691476489750E-16  -7.51812855323532E-16
     -1.17651474388291E-16
      5.10701633102271E-01
      5.10701633102271E-01   5.10701633102271E-01   0.00000000000000E+00   0.00000000000000E+00   7.69613254740348E-16
      8.31738353408047E-21   7.69621572123882E-16   1.18098111243962E-16   0.00000000000000E+00   0.00000000000000E+00
      0.00000000000000E+00   0.00000000000000E+00  -5.76780602608213E-16  -1.92840969515670E-16  -7.69621572123883E-16
     -1.18098111243962E-16
      5.27819258197069E-01
      5.27819258197069E-01   5.27819258197069E-01   0.00000000000000E+00   0.00000000000000E+00   7.85192262424306E-16
      8.31847235094960E-21   7.85200580896657E-16   1.18490342795565E-16   0.00000000000000E+00   0.00000000000000E+00
      0.00000000000000E+00   0.00000000000000E+00  -5.87844992026304E-16  -1.97355588870352E-16  -7.85200580896656E-16
     -1.18490342795565E-16
      5.43111003281754E-01
      5.43111003281754E-01   5.43111003281754E-01   0.00000000000000E+00   0.00000000000000E+00   7.99750800450207E-16
      1.25611677722858E-20   7.99763361617979E-16   1.18840099938700E-16   0.00000000000000E+00   0.00000000000000E+00
      0.00000000000000E+00   0.00000000000000E+00  -5.98395892918787E-16  -2.01367468699192E-16  -7.99763361617980E-16
     -1.18840099938700E-16
      5.57179408759665E-01
      5.57179408759665E-01   5.57179408759665E-01   0.00000000000000E+00   0.00000000000000E+00   8.13058495667382E-16
      8.20261364533499E-21   8.13066698281028E-16   1.19161349176465E-16   0.00000000000000E+00   0.00000000000000E+00
      0.00000000000000E+00   0.00000000000000E+00  -6.08055584277153E-16  -2.05011114003874E-16  -8.13066698281027E-16
     -1.19161349176465E-16
      5.70122341799344E-01
      5.70122341799344E-01   5.70122341799344E-01   0.00000000000000E+00   0.00000000000000E+00   8.25428213245021E-16
      8.33214562255562E-21   8.25436545390643E-16   1.19456454527385E-16   0.00000000000000E+00   0.00000000000000E+00
      0.00000000000000E+00   0.00000000000000E+00  -6.17116790121160E-16  -2.08319755269482E-16  -8.25436545390643E-16
     -1.19456454527385E-16
      5.82202412636376E-01
      5.82202412636376E-01   5.82202412636376E-01   0.00000000000000E+00   0.00000000000000E+00   8.37230096562066E-16
      8.34532170867550E-21   8.37238441883775E-16   1.19731504279704E-16   0.00000000000000E+00   0.00000000000000E+00
      0.00000000000000E+00   0.00000000000000E+00  -6.25880352067295E-16  -2.11358089816479E-16  -8.37238441883775E-16
     -1.19731504279704E-16
      5.93477145417607E-01
      5.93477145417607E-01   5.93477145417607E-01   0.00000000000000E+00   0.00000000000000E+00   8.48361829843663E-16
      8.17953034687191E-21   8.48370009374010E-16   1.19987886297614E-16   0.00000000000000E+00   0.00000000000000E+00
      0.00000000000000E+00   0.00000000000000E+00  -6.34221879081849E-16  -2.14148130292161E-16  -8.48370009374010E-16
     -1.19987886297614E-16
      6.04150559117172E-01
      6.04150559117172E-01   6.04150559117172E-01   0.00000000000000E+00   0.00000000000000E+00   8.58891576048382E-16
      8.30630089289987E-21   8.58899882349275E-16   1.20230301420001E-16   0.00000000000000E+00   0.00000000000000E+00
      0.00000000000000E+00   0.00000000000000E+00  -6.42148592303177E-16  -2.16751290046097E-16  -8.58899882349274E-16
     -1.20230301420001E-16
      6.14254724086094E-01
      6.14254724086094E-01   6.14254724086094E-01   0.00000000000000E+00   0.00000000000000E+00   8.69196279671580E-16
      8.34616489398548E-21   8.69204625836474E-16   1.20459526158675E-16   0.00000000000000E+00   0.00000000000000E+00
      0.00000000000000E+00   0.00000000000000E+00  -6.50018559963614E-16  -2.19186065872859E-16  -8.69204625836474E-16
     -1.20459526158675E-16
      6.33385276427252E-01
      6.33385276427252E-01   6.33385276427252E-01   0.00000000000000E+00   0.00000000000000E+00   8.88881629136986E-16
      8.31500762947584E-21   8.88889944144615E-16   1.20892832138945E-16   0.00000000000000E+00   0.00000000000000E+00
      0.00000000000000E+00   0.00000000000000E+00  -6.65147963019746E-16  -2.23741981124869E-16  -8.88889944144615E-16
     -1.20892832138945E-16
      6.50220162487471E-01
      6.50220162487471E-01   6.50220162487471E-01   0.00000000000000E+00   0.00000000000000E+00   9.06011486501870E-16
      7.87219249016035E-21   9.06019358694360E-16   1.21273396419511E-16   0.00000000000000E+00   0.00000000000000E+00
      0.00000000000000E+00   0.00000000000000E+00  -6.78291992225283E-16  -2.27727366469078E-16  -9.06019358694361E-16
     -1.21273396419511E-16
      6.65483792515404E-01
      6.65483792515404E-01   6.65483792515404E-01   0.00000000000000E+00   0.00000000000000E+00   9.22749854794668E-16
      1.07763966899866E-20   9.22760631191359E-16   1.21617843273581E-16   0.00000000000000E+00   0.00000000000000E+00
      0.00000000000000E+00   0.00000000000000E+00  -6.91408652529638E-16  -2.31351978661721E-16  -9.22760631191359E-16
     -1.21617843273581E-16
      6.79526332141101E-01
      6.79526332141101E-01   6.79526332141101E-01   0.00000000000000E+00   0.00000000000000E+00   9.37962162592790E-16
      8.57223776534966E-21   9.37970734830555E-16   1.21934235695276E-16   0.00000000000000E+00   0.00000000000000E+00
      0.00000000000000E+00   0.00000000000000E+00  -7.03271468205367E-16  -2.34699266625187E-16  -9.37970734830554E-16
     -1.21934235695276E-16
      6.92445468596743E-01
      6.92445468596743E-01   6.92445468596743E-01   0.00000000000000E+00   0.00000000000000E+00   9.52380016011308E-16
      8.34423979436064E-21   9.52388360251102E-16   1.22224897579176E-16   0.00000000000000E+00   0.00000000000000E+00
      0.00000000000000E+00   0.00000000000000E+00  -7.14593347467564E-16  -2.37795012783536E-16  -9.52388360251100E-16
     -1.22224897579176E-16
      7.04503329288675E-01
      7.04503329288675E-01   7.04503329288675E-01   0.00000000000000E+00   0.00000000000000E+00   9.65958155322245E-16
      8.34599656254442E-21   9.65966501318808E-16   1.22495822010480E-16   0.00000000000000E+00   0.00000000000000E+00
      0.00000000000000E+00   0.00000000000000E+00  -7.25275913479881E-16  -2.40690587838927E-16  -9.65966501318808E-16
     -1.22495822010480E-16
      7.15757332601145E-01
      7.15757332601145E-01   7.15757332601145E-01   0.00000000000000E+00   0.00000000000000E+00   9.78919274261482E-16
      8.19605225272982E-21   9.78927470313735E-16   1.22748373214535E-16   0.00000000000000E+00   0.00000000000000E+00
      0.00000000000000E+00   0.00000000000000E+00  -7.35537891620924E-16  -2.43389578692812E-16  -9.78927470313735E-16
     -1.22748373214535E-16
      7.26411122403617E-01
      7.26411122403617E-01   7.26411122403617E-01   0.00000000000000E+00   0.00000000000000E+00   9.91240476196170E-16
      8.34413017815596E-21   9.91248820326348E-16   1.22987179509684E-16   0.00000000000000E+00   0.00000000000000E+00
      0.00000000000000E+00   0.00000000000000E+00  -7.45315315063230E-16  -2.45933505263118E-16  -9.91248820326349E-16
     -1.22987179509684E-16
      7.36496710083290E-01
      7.36496710083290E-01   7.36496710083290E-01   0.00000000000000E+00   0.00000000000000E+00   1.00315090237560E-15
      8.34617763215623E-21   1.00315924855323E-15   1.23213004029722E-16   0.00000000000000E+00   0.00000000000000E+00
      0.00000000000000E+00   0.00000000000000E+00  -7.54834682879193E-16  -2.48324565674034E-16  -1.00315924855323E-15
     -1.23213004029722E-16
      7.55592089423472E-01
      7.55592089423472E-01   7.55592089423472E-01   0.00000000000000E+00   0.00000000000000E+00   1.02643164643414E-15
      8.31486009618340E-21   1.02643996129424E-15   1.23639916273077E-16   0.00000000000000E+00   0.00000000000000E+00
      0.00000000000000E+00   0.00000000000000E+00  -7.73650837014787E-16  -2.52789124279451E-16  -1.02643996129424E-15
     -1.23639916273077E-16
      7.72396023242831E-01
      7.72396023242831E-01   7.72396023242831E-01   0.00000000000000E+00   0.00000000000000E+00   1.04716602071133E-15
      8.31516626223978E-21   1.04717433587759E-15   1.24014903046989E-16   0.00000000000000E+00   0.00000000000000E+00
      0.00000000000000E+00   0.00000000000000E+00  -7.90532953905976E-16  -2.56641381971616E-16  -1.04717433587759E-15
     -1.24014903046988E-16
      7.87407537454793E-01
      7.87407537454793E-01   7.87407537454793E-01   0.00000000000000E+00   0.00000000000000E+00   1.06586355660316E-15
      8.27813279345322E-21   1.06587183473595E-15   1.24349346061938E-16   0.00000000000000E+00   0.00000000000000E+00
      0.00000000000000E+00   0.00000000000000E+00  -8.05844565810718E-16  -2.60027268925237E-16  -1.06587183473596E-15
     -1.24349346061938E-16
      8.01218130529797E-01
      8.01218130529797E-01   8.01218130529797E-01   0.00000000000000E+00   0.00000000000000E+00   1.07981906432013E-15
      8.27594497340314E-21   1.07982734026510E-15   1.24656583836042E-16   0.00000000000000E+00   0.00000000000000E+00
      0.00000000000000E+00   0.00000000000000E+00  -8.16718685121951E-16  -2.63108655143150E-16  -1.07982734026510E-15
     -1.24656583836042E-16
      8.14108017399801E-01
      8.14108017399801E-01   8.14108017399801E-01   0.00000000000000E+00   0.00000000000000E+00   1.10060633358319E-15
      8.34298828268103E-21   1.10061467657148E-15   1.24942953948767E-16   0.00000000000000E+00   0.00000000000000E+00
      0.00000000000000E+00   0.00000000000000E+00  -8.34645892076098E-16  -2.65968784495378E-16  -1.10061467657148E-15
     -1.24942953948767E-16
      8.26138578478471E-01
      8.26138578478471E-01   8.26138578478471E-01   0.00000000000000E+00   0.00000000000000E+00   1.11640065372535E-15
      8.35151624040318E-21   1.11640900524159E-15   1.25209900395202E-16   0.00000000000000E+00   0.00000000000000E+00
      0.00000000000000E+00   0.00000000000000E+00  -8.47774064469943E-16  -2.68634940771646E-16  -1.11640900524159E-15
     -1.25209900395202E-16
      8.37367102151897E-01
      8.37367102151897E-01   8.37367102151897E-01   0.00000000000000E+00   0.00000000000000E+00   1.13167933911037E-15
      8.24639066810978E-21   1.13168758550104E-15   1.25458763610861E-16   0.00000000000000E+00   0.00000000000000E+00
      0.00000000000000E+00   0.00000000000000E+00  -8.60560328764736E-16  -2.71127256736303E-16  -1.13168758550104E-15
     -1.25458763610861E-16
      8.47996771229407E-01
      8.47996771229407E-01   8.47996771229407E-01   0.00000000000000E+00   0.00000000000000E+00   1.14642525352532E-15
      8.34569978387427E-21   1.14643359922510E-15   1.25694101305543E-16   0.00000000000000E+00   0.00000000000000E+00
      0.00000000000000E+00   0.00000000000000E+00  -8.72939871368162E-16  -2.73493727856936E-16  -1.14643359922510E-15
     -1.25694101305543E-16
      8.58059524622783E-01
      8.58059524622783E-01   8.58059524622783E-01   0.00000000000000E+00   0.00000000000000E+00   1.16072867314168E-15
      8.34619021677829E-21   1.16073701933190E-15   1.25916663137577E-16   0.00000000000000E+00   0.00000000000000E+00
      0.00000000000000E+00   0.00000000000000E+00  -8.84996534019501E-16  -2.75740485312400E-16  -1.16073701933190E-15
     -1.25916663137577E-16
      8.77111671047574E-01
      8.77111671047574E-01   8.77111671047574E-01   0.00000000000000E+00   0.00000000000000E+00   1.18803707213745E-15
      8.31035579087687E-21   1.18804538249324E-15   1.26337455870889E-16   0.00000000000000E+00   0.00000000000000E+00
      0.00000000000000E+00   0.00000000000000E+00  -9.08041541305683E-16  -2.80003841187555E-16  -1.18804538249324E-15
     -1.26337455870890E-16
      8.93877559901391E-01
      8.93877559901391E-01   8.93877559901391E-01   0.00000000000000E+00   0.00000000000000E+00   1.21252707973945E-15
      8.31578432747270E-21   1.21253539552378E-15   1.26707123001179E-16   0.00000000000000E+00   0.00000000000000E+00
      0.00000000000000E+00   0.00000000000000E+00  -9.28790455460973E-16  -2.83744940062809E-16  -1.21253539552378E-15
     -1.26707123001179E-16
      9.08855087277467E-01
      9.08855087277467E-01   9.08855087277467E-01   0.00000000000000E+00   0.00000000000000E+00   1.23429216718721E-15
      1.30192736208011E-20   1.23430518646083E-15   1.27036868455584E-16   0.00000000000000E+00   0.00000000000000E+00
      0.00000000000000E+00   0.00000000000000E+00  -9.47246415569448E-16  -2.87058770891379E-16  -1.23430518646083E-15
     -1.27036868455584E-16
      9.22634412463457E-01
      9.22634412463457E-01   9.22634412463457E-01   0.00000000000000E+00   0.00000000000000E+00   1.25186903351419E-15
      1.19165974492855E-20   1.25188095011164E-15   1.27339832268905E-16   0.00000000000000E+00   0.00000000000000E+00
      0.00000000000000E+00   0.00000000000000E+00  -9.61824734999382E-16  -2.90056215112262E-16  -1.25188095011164E-15
     -1.27339832268904E-16
      9.35495115970381E-01
      9.35495115970381E-01   9.35495115970381E-01   0.00000000000000E+00   0.00000000000000E+00   1.27646779265203E-15
      8.34495237256613E-21   1.27647613760440E-15   1.27622256551829E-16   0.00000000000000E+00   0.00000000000000E+00
      0.00000000000000E+00   0.00000000000000E+00  -9.83675702886792E-16  -2.92800434717606E-16  -1.27647613760440E-15
     -1.27622256551829E-16
      9.47498439243510E-01
      9.47498439243510E-01   9.47498439243510E-01   0.00000000000000E+00   0.00000000000000E+00   1.29548719276594E-15
      8.35566999067575E-21   1.29549554843593E-15   1.27885559432524E-16   0.00000000000000E+00   0.00000000000000E+00
      0.00000000000000E+00   0.00000000000000E+00  -1.00017957307729E-15  -2.95315975358638E-16  -1.29549554843593E-15
     -1.27885559432523E-16
      9.58701540965098E-01