DF-ISE text

Info {
  version   = 1.0
  type      = xyplot
  datasets  = [
    "time"
    "top OuterVoltage" "top InnerVoltage" "top QuasiFermiPotential" "top DisplacementCurrent" "top eCurrent"
    "top hCurrent" "top TotalCurrent" "top Charge" "bottom OuterVoltage" "bottom InnerVoltage"
    "bottom QuasiFermiPotential" "bottom DisplacementCurrent" "bottom eCurrent" "bottom hCurrent" "bottom TotalCurrent"
    "bottom Charge" ]
  functions = [
    Time
    OuterVoltage InnerVoltage QuasiFermiPotential DisplacementCurrent eCurrent
    hCurrent TotalCurrent Charge OuterVoltage InnerVoltage
    QuasiFermiPotential DisplacementCurrent eCurrent hCurrent TotalCurrent
    Charge ]
}

Data {
      0.00000000000000E+00
      0.00000000000000E+00   0.00000000000000E+00   0.00000000000000E+00   0.00000000000000E+00   3.92420136213555E-22
      6.21774124825379E-31   3.92420136835329E-22   6.50709366189857E-17   0.00000000000000E+00   0.00000000000000E+00
      0.00000000000000E+00   0.00000000000000E+00  -3.92420136238886E-22  -5.96443499874247E-31  -3.92420136835329E-22
     -6.50709366189857E-17
      0.00000000000000E+00
      0.00000000000000E+00   0.00000000000000E+00   0.00000000000000E+00   0.00000000000000E+00  -9.66710152245768E-18
      5.36555277191244E-28  -9.66710152192113E-18   6.50709039212658E-17   0.00000000000000E+00   0.00000000000000E+00
      0.00000000000000E+00   0.00000000000000E+00   9.66710152648087E-18  -4.55977123073631E-27   9.66710152192110E-18
     -6.50709039212659E-17
      1.00000000000000E-02
      1.00000000000000E-02   1.00000000000000E-02   0.00000000000000E+00   0.00000000000000E+00   1.06703610847436E-16
      5.45258496446030E-19   1.07248869343882E-16   6.54644992302930E-17   0.00000000000000E+00   0.00000000000000E+00
      0.00000000000000E+00   0.00000000000000E+00  -9.66555906828363E-17  -1.05932786610460E-17  -1.07248869343882E-16
     -6.54644992302929E-17
      2.89333333333333E-02
      2.89333333333333E-02   2.89333333333333E-02   0.00000000000000E+00   0.00000000000000E+00   2.31239285227229E-16
      1.08762130639514E-18   2.32326906533624E-16   6.62071425717168E-17   0.00000000000000E+00   0.00000000000000E+00
      0.00000000000000E+00   0.00000000000000E+00  -2.05755599319022E-16  -2.65713072146010E-17  -2.32326906533623E-16
     -6.62071425717168E-17
      6.42755555555556E-02
      6.42755555555556E-02   6.42755555555556E-02   0.00000000000000E+00   0.00000000000000E+00   3.56627296741887E-16
      1.48013622881172E-18   3.58107432970699E-16   6.75844145413947E-17   0.00000000000000E+00   0.00000000000000E+00
      0.00000000000000E+00   0.00000000000000E+00  -3.09993703998838E-16  -4.81137289718602E-17  -3.58107432970699E-16
     -6.75844145413947E-17
      1.14275555555556E-01
      1.14275555555556E-01   1.14275555555556E-01   0.00000000000000E+00   0.00000000000000E+00   3.86849986714388E-16
      1.43212112196999E-18   3.88282107836358E-16   6.95128470316571E-17   0.00000000000000E+00   0.00000000000000E+00
      0.00000000000000E+00   0.00000000000000E+00  -3.17944703041444E-16  -7.03374047949150E-17  -3.88282107836359E-16
     -6.95128470316571E-17
      1.64275555555556E-01
      1.64275555555556E-01   1.64275555555556E-01   0.00000000000000E+00   0.00000000000000E+00   4.21342137093412E-16
      1.45300574343092E-18   4.22795142836842E-16   7.14177940324060E-17   0.00000000000000E+00   0.00000000000000E+00
      0.00000000000000E+00   0.00000000000000E+00  -3.33483378475643E-16  -8.93117643611996E-17  -4.22795142836843E-16
     -7.14177940324059E-17
      2.14275555555556E-01
      2.14275555555556E-01   2.14275555555556E-01   0.00000000000000E+00   0.00000000000000E+00   4.52929819522297E-16
      1.51127443600738E-18   4.54441093958305E-16   7.32993291253524E-17   0.00000000000000E+00   0.00000000000000E+00
      0.00000000000000E+00   0.00000000000000E+00  -3.47602263310430E-16  -1.06838830647874E-16  -4.54441093958305E-16
     -7.32993291253523E-17
      2.64275555555556E-01
      2.64275555555556E-01   2.64275555555556E-01   0.00000000000000E+00   0.00000000000000E+00   4.83988141483274E-16
      1.45994437608031E-18   4.85448085859354E-16   7.51575737039897E-17   0.00000000000000E+00   0.00000000000000E+00
      0.00000000000000E+00   0.00000000000000E+00  -3.62178727453497E-16  -1.23269358405857E-16  -4.85448085859354E-16
     -7.51575737039897E-17
      3.14275555555556E-01
      3.14275555555556E-01   3.14275555555556E-01   0.00000000000000E+00   0.00000000000000E+00   5.14977657035978E-16
      1.52333690928299E-18   5.16500993945261E-16   7.69926672504936E-17   0.00000000000000E+00   0.00000000000000E+00
      0.00000000000000E+00   0.00000000000000E+00  -3.77481822956518E-16  -1.39019170988744E-16  -5.16500993945262E-16
     -7.69926672504937E-17
      3.64275555555556E-01
      3.64275555555556E-01   3.64275555555556E-01   0.00000000000000E+00   0.00000000000000E+00   5.46084673659621E-16
      1.49546554017579E-18   5.47580139199797E-16   7.88047503937033E-17   0.00000000000000E+00   0.00000000000000E+00
      0.00000000000000E+00   0.00000000000000E+00  -3.93588517128227E-16  -1.53991622071569E-16  -5.47580139199796E-16
     -7.88047503937033E-17
      4.14275555555556E-01
      4.14275555555556E-01   4.14275555555556E-01   0.00000000000000E+00   0.00000000000000E+00   5.74443288713472E-16
      1.43314706254734E-18   5.75876435776020E-16   8.05939681240300E-17   0.00000000000000E+00   0.00000000000000E+00
      0.00000000000000E+00   0.00000000000000E+00  -4.07536133438815E-16  -1.68340302337204E-16  -5.75876435776020E-16
     -8.05939681240301E-17
      4.64275555555555E-01
      4.64275555555555E-01   4.64275555555555E-01   0.00000000000000E+00   0.00000000000000E+00   6.09502305147033E-16
      1.43210073097031E-18   6.10934405878003E-16   8.23604875105748E-17   0.00000000000000E+00   0.00000000000000E+00
      0.00000000000000E+00   0.00000000000000E+00  -4.28724994026609E-16  -1.82209411851393E-16  -6.10934405878002E-16
     -8.23604875105748E-17
      5.14275555555555E-01
      5.14275555555555E-01   5.14275555555555E-01   0.00000000000000E+00   0.00000000000000E+00   6.42163021515317E-16
      1.24586342754304E-17   6.54621655790748E-16   8.41045172536552E-17   0.00000000000000E+00   0.00000000000000E+00
      0.00000000000000E+00   0.00000000000000E+00  -4.47917389571401E-16  -2.06704266219347E-16  -6.54621655790748E-16
     -8.41045172536553E-17
      5.64275555555556E-01
      5.64275555555556E-01   5.64275555555556E-01   0.00000000000000E+00   0.00000000000000E+00   6.75581653310371E-16
      1.72975603150946E-18   6.77311409341881E-16   8.58263190117525E-17   0.00000000000000E+00   0.00000000000000E+00
      0.00000000000000E+00   0.00000000000000E+00  -4.68411033232183E-16  -2.08900376109697E-16  -6.77311409341881E-16
     -8.58263190117525E-17
      6.14275555555556E-01
      6.14275555555556E-01   6.14275555555556E-01   0.00000000000000E+00   0.00000000000000E+00   7.09843466323780E-16
      1.25402895388393E-18   7.11097495277664E-16   8.75262079387883E-17   0.00000000000000E+00   0.00000000000000E+00
      0.00000000000000E+00   0.00000000000000E+00  -4.90136473682780E-16  -2.20961021594885E-16  -7.11097495277665E-16
     -8.75262079387885E-17
      6.64275555555556E-01
      6.64275555555556E-01   6.64275555555556E-01   0.00000000000000E+00   0.00000000000000E+00   7.45427321410238E-16
      1.18645872417454E-18   7.46613780134412E-16   8.92045457879800E-17   0.00000000000000E+00   0.00000000000000E+00
      0.00000000000000E+00   0.00000000000000E+00  -5.13449027295587E-16  -2.33164752838825E-16  -7.46613780134413E-16
     -8.92045457879800E-17
      7.14275555555556E-01
      7.14275555555556E-01   7.14275555555556E-01   0.00000000000000E+00   0.00000000000000E+00   7.82262030353162E-16
      4.04058497594468E-18   7.86302615329107E-16   9.08617310681712E-17   0.00000000000000E+00   0.00000000000000E+00
      0.00000000000000E+00   0.00000000000000E+00  -5.38369649485612E-16  -2.47932965843495E-16  -7.86302615329107E-16
     -9.08617310681711E-17
      7.64275555555556E-01
      7.64275555555556E-01   7.64275555555556E-01   0.00000000000000E+00   0.00000000000000E+00   8.20514663778005E-16
      1.00140193143689E-18   8.21516065709442E-16   9.24981891979970E-17   0.00000000000000E+00   0.00000000000000E+00
      0.00000000000000E+00   0.00000000000000E+00  -5.65151066683434E-16  -2.56364999026007E-16  -8.21516065709441E-16
     -9.24981891979970E-17
      8.14275555555556E-01
      8.14275555555556E-01   8.14275555555556E-01   0.00000000000000E+00   0.00000000000000E+00   8.60675138077366E-16
      1.96949914427544E-18   8.62644637221642E-16   9.41143643909141E-17   0.00000000000000E+00   0.00000000000000E+00
      0.00000000000000E+00   0.00000000000000E+00  -5.93959115509080E-16  -2.68685521712562E-16  -8.62644637221641E-16
     -9.41143643909142E-17
      8.39275555555556E-01
      8.39275555555556E-01   8.39275555555556E-01   0.00000000000000E+00   0.00000000000000E+00   8.81496564197522E-16
      1.29493772969103E-18   8.82791501927213E-16   9.49149885460376E-17   0.00000000000000E+00   0.00000000000000E+00
      0.00000000000000E+00   0.00000000000000E+00  -6.09172013374585E-16  -2.73619488552629E-16  -8.82791501927213E-16
     -9.49149885460376E-17
      8.85275555555556E-01
      8.85275555555556E-01   8.85275555555556E-01   0.00000000000000E+00   0.00000000000000E+00   9.21038928201576E-16
      4.54785510443919E-19   9.21493713712020E-16   9.63753827476506E-17   0.00000000000000E+00   0.00000000000000E+00
      0.00000000000000E+00   0.00000000000000E+00  -6.38729447184492E-16  -2.82764266527527E-16  -9.21493713712020E-16
     -9.63753827476507E-17
      9.35275555555556E-01
      9.35275555555556E-01   9.35275555555556E-01   0.00000000000000E+00   0.00000000000000E+00   9.66015994681541E-16
      2.45752159226014E-18   9.68473516273801E-16   9.79443928578967E-17   0.00000000000000E+00   0.00000000000000E+00
      0.00000000000000E+00   0.00000000000000E+00  -6.73325293573374E-16  -2.95148222700429E-16  -9.68473516273803E-16
     -9.79443928578967E-17
      9.85275555555556E-01
      9.85275555555556E-01   9.85275555555556E-01   0.00000000000000E+00   0.00000000000000E+00   1.01383924392045E-15
      2.19760665128246E-18   1.01603685057173E-15   9.94947377607996E-17   0.00000000000000E+00   0.00000000000000E+00
      0.00000000000000E+00   0.00000000000000E+00  -7.10756806164498E-16  -3.05280044407230E-16  -1.01603685057173E-15
     -9.94947377607996E-17
      1.00000000000000E+00
      1.00000000000000E+00   1.00000000000000E+00   0.00000000000000E+00   0.00000000000000E+00   1.02851970079597E-15
      2.10567990239564E-18   1.03062538069837E-15   9.99478119819852E-17   0.00000000000000E+00   0.00000000000000E+00
      0.00000000000000E+00   0.00000000000000E+00  -7.22342278755479E-16  -3.08283101942887E-16  -1.03062538069837E-15
     -9.99478119819852E-17
}
