DF-ISE text

Info {
  version   = 1.0
  type      = xyplot
  datasets  = [
    "time"
    "top OuterVoltage" "top InnerVoltage" "top QuasiFermiPotential" "top DisplacementCurrent" "top eCurrent"
    "top hCurrent" "top TotalCurrent" "top Charge" "bottom OuterVoltage" "bottom InnerVoltage"
    "bottom QuasiFermiPotential" "bottom DisplacementCurrent" "bottom eCurrent" "bottom hCurrent" "bottom TotalCurrent"
    "bottom Charge" ]
  functions = [
    Time
    OuterVoltage InnerVoltage QuasiFermiPotential DisplacementCurrent eCurrent
    hCurrent TotalCurrent Charge OuterVoltage InnerVoltage
    QuasiFermiPotential DisplacementCurrent eCurrent hCurrent TotalCurrent
    Charge ]
}

Data {
      0.00000000000000E+00
      0.00000000000000E+00   0.00000000000000E+00   0.00000000000000E+00   0.00000000000000E+00  -3.23581994159321E-21
      1.94355192230407E-30  -3.23581993964966E-21   7.54363792752500E-17   0.00000000000000E+00   0.00000000000000E+00
      0.00000000000000E+00   0.00000000000000E+00   3.23581994159663E-21  -1.94696415765703E-30   3.23581993964967E-21
     -7.54363792752500E-17
      0.00000000000000E+00
      0.00000000000000E+00   0.00000000000000E+00   0.00000000000000E+00   0.00000000000000E+00  -1.04392538507170E-20
     -3.10402177581222E-31  -1.04392538510274E-20   7.54363792837358E-17   0.00000000000000E+00   0.00000000000000E+00
      0.00000000000000E+00   0.00000000000000E+00   1.04392538509996E-20   2.78176883985495E-32   1.04392538510274E-20
     -7.54363792837358E-17
      1.00000000000000E-02
      1.00000000000000E-02   1.00000000000000E-02   0.00000000000000E+00   0.00000000000000E+00   1.11383866520185E-16
      2.39825145303131E-20   1.11407849034715E-16   7.57887864870317E-17   0.00000000000000E+00   0.00000000000000E+00
      0.00000000000000E+00   0.00000000000000E+00  -1.01349667815422E-16  -1.00581812192936E-17  -1.11407849034715E-16
     -7.57887864870317E-17
      2.89333333333333E-02
      2.89333333333333E-02   2.89333333333333E-02   0.00000000000000E+00   0.00000000000000E+00   2.40618703187339E-16
      4.99428125043529E-20   2.40668645999843E-16   7.64530062248169E-17   0.00000000000000E+00   0.00000000000000E+00
      0.00000000000000E+00   0.00000000000000E+00  -2.15168067344843E-16  -2.55005786550009E-17  -2.40668645999843E-16
     -7.64530062248171E-17
      4.63520000000000E-02
      4.63520000000000E-02   4.63520000000000E-02   0.00000000000000E+00   0.00000000000000E+00   3.14441301130355E-16
      7.33529763957702E-20   3.14514654106751E-16   7.70606637234296E-17   0.00000000000000E+00   0.00000000000000E+00
      0.00000000000000E+00   0.00000000000000E+00  -2.77673425653885E-16  -3.68412284528658E-17  -3.14514654106751E-16
     -7.70606637234297E-17
      6.26094222222222E-02
      6.26094222222222E-02   6.26094222222222E-02   0.00000000000000E+00   0.00000000000000E+00   3.42716658219899E-16
      7.80804647805862E-20   3.42794738684679E-16   7.76248966259374E-17   0.00000000000000E+00   0.00000000000000E+00
      0.00000000000000E+00   0.00000000000000E+00  -2.96991695232719E-16  -4.58030434519599E-17  -3.42794738684679E-16
     -7.76248966259373E-17
      7.77830162962963E-02
      7.77830162962963E-02   7.77830162962963E-02   0.00000000000000E+00   0.00000000000000E+00   3.66026180159139E-16
      6.93380393286757E-20   3.66095518198467E-16   7.81490130632078E-17   0.00000000000000E+00   0.00000000000000E+00
      0.00000000000000E+00   0.00000000000000E+00  -3.12874310071135E-16  -5.32212081273324E-17  -3.66095518198467E-16
     -7.81490130632077E-17
      9.19450374320987E-02
      9.19450374320987E-02   9.19450374320987E-02   0.00000000000000E+00   0.00000000000000E+00   3.82269418180969E-16
     -4.54333407819588E-20   3.82223984840187E-16   7.86360399720522E-17   0.00000000000000E+00   0.00000000000000E+00
      0.00000000000000E+00   0.00000000000000E+00  -3.22743486791769E-16  -5.94804980484170E-17  -3.82223984840186E-16
     -7.86360399720522E-17
      1.05162923825514E-01
      1.05162923825514E-01   1.05162923825514E-01   0.00000000000000E+00   0.00000000000000E+00   3.94744189802690E-16
     -8.16678726307047E-19   3.93927511076383E-16   7.90887510834551E-17   0.00000000000000E+00   0.00000000000000E+00
      0.00000000000000E+00   0.00000000000000E+00  -3.29623081123499E-16  -6.43044299528840E-17  -3.93927511076383E-16
     -7.90887510834551E-17
      1.17323379307457E-01
      1.17323379307457E-01   1.17323379307457E-01   0.00000000000000E+00   0.00000000000000E+00   4.04851056898527E-16
     -6.69156213087690E-20   4.04784141277219E-16   7.95036888758083E-17   0.00000000000000E+00   0.00000000000000E+00
      0.00000000000000E+00   0.00000000000000E+00  -3.34803315777172E-16  -6.99808255000470E-17  -4.04784141277219E-16
     -7.95036888758083E-17
      1.40022896207083E-01
      1.40022896207083E-01   1.40022896207083E-01   0.00000000000000E+00   0.00000000000000E+00   4.21753913420440E-16
      3.96249385616967E-20   4.21793538359001E-16   8.02743062858069E-17   0.00000000000000E+00   0.00000000000000E+00
      0.00000000000000E+00   0.00000000000000E+00  -3.42928226937237E-16  -7.88653114217646E-17  -4.21793538359002E-16
     -8.02743062858070E-17
      1.60603791529410E-01
      1.60603791529410E-01   1.60603791529410E-01   0.00000000000000E+00   0.00000000000000E+00   4.36003375580474E-16
      7.08990164248613E-20   4.36074274596899E-16   8.09686448836303E-17   0.00000000000000E+00   0.00000000000000E+00
      0.00000000000000E+00   0.00000000000000E+00  -3.49565186450669E-16  -8.65090881462300E-17  -4.36074274596899E-16
     -8.09686448836303E-17
      1.79538215225951E-01
      1.79538215225951E-01   1.79538215225951E-01   0.00000000000000E+00   0.00000000000000E+00   4.48747290699562E-16
      5.23264995819712E-20   4.48799617199144E-16   8.16038452108814E-17   0.00000000000000E+00   0.00000000000000E+00
      0.00000000000000E+00   0.00000000000000E+00  -3.55525928720628E-16  -9.32736884785161E-17  -4.48799617199144E-16
     -8.16038452108814E-17
      1.96957885026769E-01
      1.96957885026769E-01   1.96957885026769E-01   0.00000000000000E+00   0.00000000000000E+00   4.60262510878128E-16
      5.93323726113276E-20   4.60321843250740E-16   8.21852393719478E-17   0.00000000000000E+00   0.00000000000000E+00
      0.00000000000000E+00   0.00000000000000E+00  -3.60956381743625E-16  -9.93654615071149E-17  -4.60321843250740E-16
     -8.21852393719479E-17
      2.12983981243521E-01
      2.12983981243521E-01   2.12983981243521E-01   0.00000000000000E+00   0.00000000000000E+00   4.70812367036608E-16
      8.72723851949947E-20   4.70899639421803E-16   8.27176280872143E-17   0.00000000000000E+00   0.00000000000000E+00
      0.00000000000000E+00   0.00000000000000E+00  -3.66023907390301E-16  -1.04875732031502E-16  -4.70899639421803E-16
     -8.27176280872143E-17
      2.27941671045824E-01
      2.27941671045824E-01   2.27941671045824E-01   0.00000000000000E+00   0.00000000000000E+00   4.80652202707957E-16
      7.02060936076627E-20   4.80722408801564E-16   8.32123962520218E-17   0.00000000000000E+00   0.00000000000000E+00
      0.00000000000000E+00   0.00000000000000E+00  -3.70836479029066E-16  -1.09885929772499E-16  -4.80722408801565E-16
     -8.32123962520218E-17
      2.41902181527973E-01
      2.41902181527973E-01   2.41902181527973E-01   0.00000000000000E+00   0.00000000000000E+00   4.89820634307486E-16
     -2.30645291956698E-20   4.89797569778290E-16   8.36723482244047E-17   0.00000000000000E+00   0.00000000000000E+00
      0.00000000000000E+00   0.00000000000000E+00  -3.75381642934747E-16  -1.14415926843543E-16  -4.89797569778290E-16
     -8.36723482244048E-17
      2.54931991311311E-01
      2.54931991311311E-01   2.54931991311311E-01   0.00000000000000E+00   0.00000000000000E+00   4.98390492856176E-16
      1.78583325673210E-20   4.98408351188744E-16   8.41000584484693E-17   0.00000000000000E+00   0.00000000000000E+00
      0.00000000000000E+00   0.00000000000000E+00  -3.79701667078097E-16  -1.18706684110646E-16  -4.98408351188743E-16
     -8.41000584484693E-17
      2.66919416311983E-01
      2.66919416311983E-01   2.66919416311983E-01   0.00000000000000E+00   0.00000000000000E+00   5.06308468862199E-16
      1.74312866866260E-19   5.06482781729065E-16   8.44922192270842E-17   0.00000000000000E+00   0.00000000000000E+00
      0.00000000000000E+00   0.00000000000000E+00  -3.83757489963189E-16  -1.22725291765876E-16  -5.06482781729066E-16
     -8.44922192270842E-17
      2.89295942979904E-01
      2.89295942979904E-01   2.89295942979904E-01   0.00000000000000E+00   0.00000000000000E+00   5.20962271901556E-16
      7.18580757755881E-20   5.21034129977331E-16   8.52208755384746E-17   0.00000000000000E+00   0.00000000000000E+00
      0.00000000000000E+00   0.00000000000000E+00  -3.91324176162824E-16  -1.29709953814508E-16  -5.21034129977332E-16
     -8.52208755384747E-17
      3.09583993825485E-01
      3.09583993825485E-01   3.09583993825485E-01   0.00000000000000E+00   0.00000000000000E+00   5.34403653753794E-16
      7.18417075417651E-20   5.34475495461336E-16   8.58777721448486E-17   0.00000000000000E+00   0.00000000000000E+00
      0.00000000000000E+00   0.00000000000000E+00  -3.98467072769970E-16  -1.36008422691366E-16  -5.34475495461336E-16
     -8.58777721448486E-17
      3.27978493258812E-01
      3.27978493258812E-01   3.27978493258812E-01   0.00000000000000E+00   0.00000000000000E+00   5.46605003061533E-16
      6.93292847930861E-20   5.46674332346326E-16   8.64703183378638E-17   0.00000000000000E+00   0.00000000000000E+00
      0.00000000000000E+00   0.00000000000000E+00  -4.05050929799773E-16  -1.41623402546553E-16  -5.46674332346326E-16
     -8.64703183378636E-17
      3.44901432737473E-01
      3.44901432737473E-01   3.44901432737473E-01   0.00000000000000E+00   0.00000000000000E+00   5.57835387434058E-16
      1.95660160661916E-19   5.58031047594720E-16   8.70129398692784E-17   0.00000000000000E+00   0.00000000000000E+00
      0.00000000000000E+00   0.00000000000000E+00  -4.11188159539302E-16  -1.46842888055419E-16  -5.58031047594721E-16
     -8.70129398692785E-17
      3.60696176250890E-01
      3.60696176250890E-01   3.60696176250890E-01   0.00000000000000E+00   0.00000000000000E+00   5.68419367002190E-16
      7.09245352942688E-20   5.68490291537485E-16   8.75172321679684E-17   0.00000000000000E+00   0.00000000000000E+00
      0.00000000000000E+00   0.00000000000000E+00  -4.17085266172872E-16  -1.51405025364613E-16  -5.68490291537485E-16
     -8.75172321679686E-17
      3.75437936863413E-01
      3.75437936863413E-01   3.75437936863413E-01   0.00000000000000E+00   0.00000000000000E+00   5.78348609626999E-16
      7.10644467266667E-20   5.78419674073725E-16   8.79860482238162E-17   0.00000000000000E+00   0.00000000000000E+00
      0.00000000000000E+00   0.00000000000000E+00  -4.22699598551627E-16  -1.55720075522099E-16  -5.78419674073726E-16
     -8.79860482238161E-17
      3.89196913435100E-01
      3.89196913435100E-01   3.89196913435100E-01   0.00000000000000E+00   0.00000000000000E+00   5.87620141211742E-16
      6.66229954895141E-20   5.87686764207232E-16   8.84220084761499E-17   0.00000000000000E+00   0.00000000000000E+00
      0.00000000000000E+00   0.00000000000000E+00  -4.27993801863996E-16  -1.59692962343235E-16  -5.87686764207232E-16
     -8.84220084761501E-17
      4.14880336368917E-01
      4.14880336368917E-01   4.14880336368917E-01   0.00000000000000E+00   0.00000000000000E+00   6.05223871313944E-16
      7.16416136274574E-20   6.05295512927572E-16   8.92317140847973E-17   0.00000000000000E+00   0.00000000000000E+00
      0.00000000000000E+00   0.00000000000000E+00  -4.38284808396694E-16  -1.67010704530878E-16  -6.05295512927573E-16
     -8.92317140847974E-17
      4.37824194189794E-01
      4.37824194189794E-01   4.37824194189794E-01   0.00000000000000E+00   0.00000000000000E+00   6.20870793940404E-16
      7.18491351678733E-20   6.20942643075572E-16   8.99506126985942E-17   0.00000000000000E+00   0.00000000000000E+00
      0.00000000000000E+00   0.00000000000000E+00  -4.47501246594327E-16  -1.73441396481246E-16  -6.20942643075573E-16
     -8.99506126985942E-17
      4.58320707176443E-01
      4.58320707176443E-01   4.58320707176443E-01   0.00000000000000E+00   0.00000000000000E+00   6.35157121847758E-16
      6.91509121838123E-20   6.35226272759941E-16   9.05893416721064E-17   0.00000000000000E+00   0.00000000000000E+00
      0.00000000000000E+00   0.00000000000000E+00  -4.56123960882501E-16  -1.79102311877439E-16  -6.35226272759941E-16
     -9.05893416721063E-17
      4.76904212284339E-01
      4.76904212284339E-01   4.76904212284339E-01   0.00000000000000E+00   0.00000000000000E+00   6.48214176902297E-16
      7.67084402823633E-20   6.48290885342580E-16   9.11656514710178E-17   0.00000000000000E+00   0.00000000000000E+00
      0.00000000000000E+00   0.00000000000000E+00  -4.64123797410428E-16  -1.84167087932151E-16  -6.48290885342579E-16
     -9.11656514710177E-17
      4.94001036983603E-01
      4.94001036983603E-01   4.94001036983603E-01   0.00000000000000E+00   0.00000000000000E+00   6.57395188806714E-16
      4.58809781531901E-19   6.57853998588246E-16   9.16935308968894E-17   0.00000000000000E+00   0.00000000000000E+00
      0.00000000000000E+00   0.00000000000000E+00  -4.68723668604813E-16  -1.89130329983433E-16  -6.57853998588246E-16
     -9.16935308968895E-17
      5.09958073369582E-01
      5.09958073369582E-01   5.09958073369582E-01   0.00000000000000E+00   0.00000000000000E+00   6.71684800541039E-16
      7.92681175080499E-20   6.71764068658548E-16   9.21842313145241E-17   0.00000000000000E+00   0.00000000000000E+00
      0.00000000000000E+00   0.00000000000000E+00  -4.78795387990269E-16  -1.92968680668279E-16  -6.71764068658548E-16
     -9.21842313145241E-17
      5.24851307329830E-01
      5.24851307329830E-01   5.24851307329830E-01   0.00000000000000E+00   0.00000000000000E+00   6.82389856946721E-16
      7.12538663670263E-20   6.82461110813088E-16   9.26405064851754E-17   0.00000000000000E+00   0.00000000000000E+00
      0.00000000000000E+00   0.00000000000000E+00  -4.85604513109707E-16  -1.96856597703381E-16  -6.82461110813088E-16
     -9.26405064851753E-17
      5.38751659026061E-01
      5.38751659026061E-01   5.38751659026061E-01   0.00000000000000E+00   0.00000000000000E+00   6.92693497314379E-16
      6.59395266427647E-21   6.92700091267044E-16   9.30648874455502E-17   0.00000000000000E+00   0.00000000000000E+00
      0.00000000000000E+00   0.00000000000000E+00  -4.92295201504681E-16  -2.00404889762363E-16  -6.92700091267044E-16
     -9.30648874455503E-17
      5.64698982192360E-01
      5.64698982192360E-01   5.64698982192360E-01   0.00000000000000E+00   0.00000000000000E+00   7.11831585861554E-16
      7.16154600903294E-20   7.11903201321645E-16   9.38533007852286E-17   0.00000000000000E+00   0.00000000000000E+00
      0.00000000000000E+00   0.00000000000000E+00  -5.04749707502219E-16  -2.07153493819427E-16  -7.11903201321646E-16
     -9.38533007852290E-17
      5.83381054872094E-01
      5.83381054872094E-01   5.83381054872094E-01   0.00000000000000E+00   0.00000000000000E+00   7.25877714171523E-16
      9.40174156200339E-20   7.25971731587143E-16   9.44179638062564E-17   0.00000000000000E+00   0.00000000000000E+00
      0.00000000000000E+00   0.00000000000000E+00  -5.14029552142675E-16  -2.11942179444468E-16  -7.25971731587143E-16
     -9.44179638062562E-17
      6.00568561737450E-01
      6.00568561737450E-01   6.00568561737450E-01   0.00000000000000E+00   0.00000000000000E+00   7.39013231641498E-16
      6.66906151359269E-20   7.39079922256634E-16   9.49352712129938E-17   0.00000000000000E+00   0.00000000000000E+00
      0.00000000000000E+00   0.00000000000000E+00  -5.22833184612394E-16  -2.16246737644240E-16  -7.39079922256634E-16
     -9.49352712129940E-17
      6.16381068053578E-01
      6.16381068053578E-01   6.16381068053578E-01   0.00000000000000E+00   0.00000000000000E+00   7.51195192709130E-16
      7.58499933407841E-20   7.51271042702471E-16   9.54093688261476E-17   0.00000000000000E+00   0.00000000000000E+00
      0.00000000000000E+00   0.00000000000000E+00  -5.31087356409549E-16  -2.20183686292922E-16  -7.51271042702471E-16
     -9.54093688261478E-17
      6.31139407281963E-01
      6.31139407281963E-01   6.31139407281963E-01   0.00000000000000E+00   0.00000000000000E+00   7.62658334610473E-16
      7.17610441362683E-20   7.62730095654609E-16   9.58502992730304E-17   0.00000000000000E+00   0.00000000000000E+00
      0.00000000000000E+00   0.00000000000000E+00  -5.38937817578567E-16  -2.23792278076041E-16  -7.62730095654608E-16
     -9.58502992730304E-17
      6.44913857228457E-01
      6.44913857228457E-01   6.44913857228457E-01   0.00000000000000E+00   0.00000000000000E+00   7.71532487851388E-16
      8.90824142766710E-19   7.72423311994155E-16   9.62604888071385E-17   0.00000000000000E+00   0.00000000000000E+00
      0.00000000000000E+00   0.00000000000000E+00  -5.44482446891355E-16  -2.27940865102800E-16  -7.72423311994155E-16
     -9.62604888071381E-17
      6.70993482460484E-01
      6.70993482460484E-01   6.70993482460484E-01   0.00000000000000E+00   0.00000000000000E+00   7.94429403322371E-16
      7.15789261481623E-20   7.94500982248519E-16   9.70336007347634E-17   0.00000000000000E+00   0.00000000000000E+00
      0.00000000000000E+00   0.00000000000000E+00  -5.61152535427276E-16  -2.33348446821245E-16  -7.94500982248520E-16
     -9.70336007347634E-17
      6.93943552664668E-01
      6.93943552664668E-01   6.93943552664668E-01   0.00000000000000E+00   0.00000000000000E+00   8.13147195479612E-16
      7.73373904467161E-20   8.13224532870059E-16   9.77101903094254E-17   0.00000000000000E+00   0.00000000000000E+00
      0.00000000000000E+00   0.00000000000000E+00  -5.74428187166694E-16  -2.38796345703364E-16  -8.13224532870058E-16
     -9.77101903094254E-17
      7.14445615380406E-01
      7.14445615380406E-01   7.14445615380406E-01   0.00000000000000E+00   0.00000000000000E+00   8.30377230186270E-16
      6.68899105608185E-20   8.30444120096831E-16   9.83116895722591E-17   0.00000000000000E+00   0.00000000000000E+00
      0.00000000000000E+00   0.00000000000000E+00  -5.86807386851966E-16  -2.43636733244866E-16  -8.30444120096832E-16
     -9.83116895722593E-17
      7.33034152242675E-01
      7.33034152242675E-01   7.33034152242675E-01   0.00000000000000E+00   0.00000000000000E+00   8.46477703649260E-16
      7.20500902529996E-20   8.46549753739513E-16   9.88547003752330E-17   0.00000000000000E+00   0.00000000000000E+00
      0.00000000000000E+00   0.00000000000000E+00  -5.98532002524189E-16  -2.48017751215325E-16  -8.46549753739514E-16
     -9.88547003752329E-17
      7.49887758997798E-01
      7.49887758997798E-01   7.49887758997798E-01   0.00000000000000E+00   0.00000000000000E+00   8.61138438319399E-16
      7.39097498479375E-20   8.61212348069247E-16   9.93451242674558E-17   0.00000000000000E+00   0.00000000000000E+00
      0.00000000000000E+00   0.00000000000000E+00  -6.09267417290149E-16  -2.51944930779099E-16  -8.61212348069248E-16
     -9.93451242674557E-17
      7.65393077212512E-01
      7.65393077212512E-01   7.65393077212512E-01   0.00000000000000E+00   0.00000000000000E+00   8.74835698644884E-16
      2.22315661326527E-19   8.75058014306211E-16   9.97947320078257E-17   0.00000000000000E+00   0.00000000000000E+00
      0.00000000000000E+00   0.00000000000000E+00  -6.19408331328482E-16  -2.55649682977727E-16  -8.75058014306209E-16
     -9.97947320078258E-17
      7.79864707546245E-01
      7.79864707546245E-01   7.79864707546245E-01   0.00000000000000E+00   0.00000000000000E+00   8.87827614212748E-16
      7.11657857165594E-20   8.87898779998465E-16   1.00213012518443E-16   0.00000000000000E+00   0.00000000000000E+00
      0.00000000000000E+00   0.00000000000000E+00  -6.29138686354740E-16  -2.58760093643724E-16  -8.87898779998464E-16
     -1.00213012518443E-16
      7.93178607453280E-01
      7.93178607453280E-01   7.93178607453280E-01   0.00000000000000E+00   0.00000000000000E+00   8.99915291983474E-16
      6.89977525639737E-20   8.99984289736039E-16   1.00596687965759E-16   0.00000000000000E+00   0.00000000000000E+00
      0.00000000000000E+00   0.00000000000000E+00  -6.38276186910962E-16  -2.61708102825076E-16  -8.99984289736039E-16
     -1.00596687965759E-16
      8.18031220613077E-01
      8.18031220613077E-01   8.18031220613077E-01   0.00000000000000E+00   0.00000000000000E+00   9.22971825936835E-16
      7.13516035165948E-20   9.23043177540351E-16   1.01309987799940E-16   0.00000000000000E+00   0.00000000000000E+00
      0.00000000000000E+00   0.00000000000000E+00  -6.55932773518757E-16  -2.67110404021592E-16  -9.23043177540350E-16
     -1.01309987799939E-16
      8.39901520193699E-01
      8.39901520193699E-01   8.39901520193699E-01   0.00000000000000E+00   0.00000000000000E+00   9.43606623096851E-16
      7.15516629968447E-20   9.43678174759848E-16   1.01934616803208E-16   0.00000000000000E+00   0.00000000000000E+00
      0.00000000000000E+00   0.00000000000000E+00  -6.71878820090328E-16  -2.71799354669521E-16  -9.43678174759849E-16
     -1.01934616803208E-16
      8.59438987819054E-01
      8.59438987819054E-01   8.59438987819054E-01   0.00000000000000E+00   0.00000000000000E+00   9.62643018915306E-16
      7.16111522684432E-20   9.62714630067574E-16   1.02490221737721E-16   0.00000000000000E+00   0.00000000000000E+00
      0.00000000000000E+00   0.00000000000000E+00  -6.86726416411488E-16  -2.75988213656086E-16  -9.62714630067573E-16
     -1.02490221737721E-16
      8.77152958466043E-01
      8.77152958466043E-01   8.77152958466043E-01   0.00000000000000E+00   0.00000000000000E+00   9.80351498007286E-16
      7.40272891438755E-20   9.80425525296430E-16   1.02992042108920E-16   0.00000000000000E+00   0.00000000000000E+00
      0.00000000000000E+00   0.00000000000000E+00  -7.00612089567917E-16  -2.79813435728511E-16  -9.80425525296428E-16
     -1.02992042108920E-16
      8.93449811461273E-01
      8.93449811461273E-01   8.93449811461273E-01   0.00000000000000E+00   0.00000000000000E+00   9.96988077125368E-16
      7.13898504764211E-20   9.97059466975845E-16   1.03452117724718E-16   0.00000000000000E+00   0.00000000000000E+00
      0.00000000000000E+00   0.00000000000000E+00  -7.13707145114083E-16  -2.83352321861761E-16  -9.97059466975844E-16
     -1.03452117724718E-16
      9.08442916216884E-01
      9.08442916216884E-01   9.08442916216884E-01   0.00000000000000E+00   0.00000000000000E+00   1.01267839083015E-15
      1.06622139951226E-19   1.01278501297010E-15   1.03874049516924E-16   0.00000000000000E+00   0.00000000000000E+00
      0.00000000000000E+00   0.00000000000000E+00  -7.26127151594490E-16  -2.86657861375609E-16  -1.01278501297010E-15
     -1.03874049516924E-16
      9.22436480655454E-01
      9.22436480655454E-01   9.22436480655454E-01   0.00000000000000E+00   0.00000000000000E+00   1.02748544972712E-15
      7.09124325832970E-20   1.02755636215970E-15   1.04266708349560E-16   0.00000000000000E+00   0.00000000000000E+00
      0.00000000000000E+00   0.00000000000000E+00  -7.37884576629666E-16  -2.89671785530036E-16  -1.02755636215970E-15
     -1.04266708349561E-16
      9.48184639222424E-01
      9.48184639222424E-01   9.48184639222424E-01   0.00000000000000E+00   0.00000000000000E+00   1.05528540591144E-15
      7.13916712533645E-20   1.05535679758270E-15   1.04986352154212E-16   0.00000000000000E+00   0.00000000000000E+00
      0.00000000000000E+00   0.00000000000000E+00  -7.60126361810254E-16  -2.95230435772441E-16  -1.05535679758269E-15
     -1.04986352154212E-16
      9.70843018761358E-01
      9.70843018761358E-01   9.70843018761358E-01   0.00000000000000E+00   0.00000000000000E+00   1.08103161050091E-15
      7.59827927596933E-20   1.08110759329367E-15   1.05616631778568E-16   0.00000000000000E+00   0.00000000000000E+00
      0.00000000000000E+00   0.00000000000000E+00  -7.81081027804781E-16  -3.00026565488889E-16  -1.08110759329367E-15
     -1.05616631778568E-16
      9.85421509380679E-01
      9.85421509380679E-01   9.85421509380679E-01   0.00000000000000E+00   0.00000000000000E+00   1.09780113404882E-15
      7.03335884893159E-20   1.09787146763731E-15   1.06020690978378E-16   0.00000000000000E+00   0.00000000000000E+00
      0.00000000000000E+00   0.00000000000000E+00  -7.94823632604576E-16  -3.03047835032734E-16  -1.09787146763731E-15
     -1.06020690978378E-16
      1.00000000000000E+00
      1.00000000000000E+00   1.00000000000000E+00   0.00000000000000E+00   0.00000000000000E+00   1.11483904158700E-15
      7.01554349228789E-20   1.11490919702192E-15   1.06423617773310E-16   0.00000000000000E+00   0.00000000000000E+00
      0.00000000000000E+00   0.00000000000000E+00  -8.08871900851951E-16  -3.06037296169972E-16  -1.11490919702192E-15
     -1.06423617773310E-16
}
