DF-ISE text

Info {
  version   = 1.0
  type      = xyplot
  datasets  = [
    "time"
    "top OuterVoltage" "top InnerVoltage" "top QuasiFermiPotential" "top DisplacementCurrent" "top eCurrent"
    "top hCurrent" "top TotalCurrent" "top Charge" "bottom OuterVoltage" "bottom InnerVoltage"
    "bottom QuasiFermiPotential" "bottom DisplacementCurrent" "bottom eCurrent" "bottom hCurrent" "bottom TotalCurrent"
    "bottom Charge" ]
  functions = [
    Time
    OuterVoltage InnerVoltage QuasiFermiPotential DisplacementCurrent eCurrent
    hCurrent TotalCurrent Charge OuterVoltage InnerVoltage
    QuasiFermiPotential DisplacementCurrent eCurrent hCurrent TotalCurrent
    Charge ]
}

Data {
      0.00000000000000E+00
      0.00000000000000E+00   0.00000000000000E+00   0.00000000000000E+00   0.00000000000000E+00   3.49282153609924E-21
     -7.61167869078175E-31   3.49282153533807E-21   1.06324218492149E-16   0.00000000000000E+00   0.00000000000000E+00
      0.00000000000000E+00   0.00000000000000E+00  -3.49282153614495E-21   8.06881045724026E-31  -3.49282153533807E-21
     -1.06324218492149E-16
      0.00000000000000E+00
      0.00000000000000E+00   0.00000000000000E+00   0.00000000000000E+00   0.00000000000000E+00  -6.43171137558620E-18
      1.20190013592067E-29  -6.43171137557418E-18   1.06324200495744E-16   0.00000000000000E+00   0.00000000000000E+00
      0.00000000000000E+00   0.00000000000000E+00   6.43171137861088E-18  -3.03670055512065E-27   6.43171137557418E-18
     -1.06324200495744E-16
      1.00000000000000E-02
      1.00000000000000E-02   1.00000000000000E-02   0.00000000000000E+00   0.00000000000000E+00   1.24125702778673E-16
      2.69743390417077E-21   1.24128400212578E-16   1.06566435495681E-16   0.00000000000000E+00   0.00000000000000E+00
      0.00000000000000E+00   0.00000000000000E+00  -1.14097368642760E-16  -1.00310315698172E-17  -1.24128400212578E-16
     -1.06566435495681E-16
      2.89333333333333E-02
      2.89333333333333E-02   2.89333333333333E-02   0.00000000000000E+00   0.00000000000000E+00   2.66158673457037E-16
      5.81787232059624E-21   2.66164491329357E-16   1.07024282709910E-16   0.00000000000000E+00   0.00000000000000E+00
      0.00000000000000E+00   0.00000000000000E+00  -2.40721936279248E-16  -2.54425550501089E-17  -2.66164491329357E-16
     -1.07024282709910E-16
      4.63520000000000E-02
      4.63520000000000E-02   4.63520000000000E-02   0.00000000000000E+00   0.00000000000000E+00   3.40549159649070E-16
      7.00372453270092E-21   3.40556163373603E-16   1.07444602526471E-16   0.00000000000000E+00   0.00000000000000E+00
      0.00000000000000E+00   0.00000000000000E+00  -3.03800190489170E-16  -3.67559728844336E-17  -3.40556163373604E-16
     -1.07444602526471E-16
      6.23771733333333E-02
      6.23771733333333E-02   6.23771733333333E-02   0.00000000000000E+00   0.00000000000000E+00   3.45777090712296E-16
      3.22358633400493E-20   3.45809326575636E-16   1.07830541337792E-16   0.00000000000000E+00   0.00000000000000E+00
      0.00000000000000E+00   0.00000000000000E+00  -3.00195665258085E-16  -4.56136613175512E-17  -3.45809326575636E-16
     -1.07830541337792E-16
      7.73340017777778E-02
      7.73340017777778E-02   7.73340017777778E-02   0.00000000000000E+00   0.00000000000000E+00   4.04708561696461E-16
     -3.08058805964825E-19   4.04400502890496E-16   1.08190101856464E-16   0.00000000000000E+00   0.00000000000000E+00
      0.00000000000000E+00   0.00000000000000E+00  -3.51794587158152E-16  -5.26059157323438E-17  -4.04400502890496E-16
     -1.08190101856464E-16
      9.12937083259259E-02
      9.12937083259259E-02   9.12937083259259E-02   0.00000000000000E+00   0.00000000000000E+00   4.24708183320255E-16
      8.05279235137586E-21   4.24716236112606E-16   1.08525129081865E-16   0.00000000000000E+00   0.00000000000000E+00
      0.00000000000000E+00   0.00000000000000E+00  -3.65498944530955E-16  -5.92172915816506E-17  -4.24716236112606E-16
     -1.08525129081866E-16
      1.04322767770864E-01
      1.04322767770864E-01   1.04322767770864E-01   0.00000000000000E+00   0.00000000000000E+00   4.38734430240203E-16
      8.37693725508001E-21   4.38742807177458E-16   1.08837332947428E-16   0.00000000000000E+00   0.00000000000000E+00
      0.00000000000000E+00   0.00000000000000E+00  -3.73993140184168E-16  -6.47496669932899E-17  -4.38742807177458E-16
     -1.08837332947428E-16
      1.16483223252807E-01
      1.16483223252807E-01   1.16483223252807E-01   0.00000000000000E+00   0.00000000000000E+00   4.50098922024027E-16
      8.27010066089915E-21   4.50107192124688E-16   1.09128299167983E-16   0.00000000000000E+00   0.00000000000000E+00
      0.00000000000000E+00   0.00000000000000E+00  -3.80419882763982E-16  -6.96873093607062E-17  -4.50107192124688E-16
     -1.09128299167983E-16
      1.27832981702619E-01
      1.27832981702619E-01   1.27832981702619E-01   0.00000000000000E+00   0.00000000000000E+00   4.59763122154550E-16
      8.29983619608439E-21   4.59771421990746E-16   1.09399499047422E-16   0.00000000000000E+00   0.00000000000000E+00
      0.00000000000000E+00   0.00000000000000E+00  -3.85630148203930E-16  -7.41412737868157E-17  -4.59771421990746E-16
     -1.09399499047422E-16
      1.38426089589112E-01
      1.38426089589112E-01   1.38426089589112E-01   0.00000000000000E+00   0.00000000000000E+00   4.68638071113285E-16
      8.31717361710247E-21   4.68646388286902E-16   1.09652298373183E-16   0.00000000000000E+00   0.00000000000000E+00
      0.00000000000000E+00   0.00000000000000E+00  -3.90457649533425E-16  -7.81887387534772E-17  -4.68646388286902E-16
     -1.09652298373183E-16
      1.58482373854203E-01
      1.58482373854203E-01   1.58482373854203E-01   0.00000000000000E+00   0.00000000000000E+00   4.84332171823059E-16
      8.33427324149258E-21   4.84340506096300E-16   1.10130085320975E-16   0.00000000000000E+00   0.00000000000000E+00
      0.00000000000000E+00   0.00000000000000E+00  -3.98717679841002E-16  -8.56228262552985E-17  -4.84340506096300E-16
     -1.10130085320975E-16
      1.72120647154465E-01
      1.72120647154465E-01   1.72120647154465E-01   0.00000000000000E+00   0.00000000000000E+00   4.94859836302467E-16
      8.32521359996797E-21   4.94868161516067E-16   1.10454348463474E-16   0.00000000000000E+00   0.00000000000000E+00
      0.00000000000000E+00   0.00000000000000E+00  -4.04327514197310E-16  -9.05406473187576E-17  -4.94868161516067E-16
     -1.10454348463474E-16
      1.84849702234710E-01
      1.84849702234710E-01   1.84849702234710E-01   0.00000000000000E+00   0.00000000000000E+00   5.04603937257357E-16
      8.40197395100681E-21   5.04612339231308E-16   1.10756532955118E-16   0.00000000000000E+00   0.00000000000000E+00
      0.00000000000000E+00   0.00000000000000E+00  -4.09566192492182E-16  -9.50461467391261E-17  -5.04612339231308E-16
     -1.10756532955118E-16
      1.96730153642939E-01
      1.96730153642939E-01   1.96730153642939E-01   0.00000000000000E+00   0.00000000000000E+00   5.13585375028214E-16
      8.34276864141343E-21   5.13593717796856E-16   1.11038170427976E-16   0.00000000000000E+00   0.00000000000000E+00
      0.00000000000000E+00   0.00000000000000E+00  -4.14410974314814E-16  -9.91827434820415E-17  -5.13593717796856E-16
     -1.11038170427976E-16
      2.07818574957285E-01
      2.07818574957285E-01   2.07818574957285E-01   0.00000000000000E+00   0.00000000000000E+00   5.22069635094103E-16
      8.26172613285835E-21   5.22077896820236E-16   1.11300682648634E-16   0.00000000000000E+00   0.00000000000000E+00
      0.00000000000000E+00   0.00000000000000E+00  -4.19091640018085E-16  -1.02986256802150E-16  -5.22077896820235E-16
     -1.11300682648634E-16
      2.18315613801533E-01
      2.18315613801533E-01   2.18315613801533E-01   0.00000000000000E+00   0.00000000000000E+00   5.30046463129031E-16
      8.32196837928076E-21   5.30054785097411E-16   1.11548883561836E-16   0.00000000000000E+00   0.00000000000000E+00
      0.00000000000000E+00   0.00000000000000E+00  -4.23516562922106E-16  -1.06538222175305E-16  -5.30054785097411E-16
     -1.11548883561836E-16
      2.38190007346643E-01
      2.38190007346643E-01   2.38190007346643E-01   0.00000000000000E+00   0.00000000000000E+00   5.45427292286256E-16
      7.10487100056509E-21   5.45434397157257E-16   1.12017983834614E-16   0.00000000000000E+00   0.00000000000000E+00
      0.00000000000000E+00   0.00000000000000E+00  -4.32290664705280E-16  -1.13143732451977E-16  -5.45434397157256E-16
     -1.12017983834614E-16
      2.55944465580274E-01
      2.55944465580274E-01   2.55944465580274E-01   0.00000000000000E+00   0.00000000000000E+00   5.58741004692303E-16
     -9.38433134969102E-22   5.58740066259168E-16   1.12436132901564E-16   0.00000000000000E+00   0.00000000000000E+00
      0.00000000000000E+00   0.00000000000000E+00  -4.39812876909484E-16  -1.18927189349683E-16  -5.58740066259168E-16
     -1.12436132901564E-16
      2.72041841045433E-01
      2.72041841045433E-01   2.72041841045433E-01   0.00000000000000E+00   0.00000000000000E+00   5.71142091295214E-16
      8.10637706334821E-21   5.71150197672278E-16   1.12814510754406E-16   0.00000000000000E+00   0.00000000000000E+00
      0.00000000000000E+00   0.00000000000000E+00  -4.47042281886117E-16  -1.24107915786161E-16  -5.71150197672277E-16
     -1.12814510754406E-16
      2.86422163127642E-01
      2.86422163127642E-01   2.86422163127642E-01   0.00000000000000E+00   0.00000000000000E+00   5.81984746118017E-16
      1.45928757414146E-20   5.81999338993759E-16   1.13151931201039E-16   0.00000000000000E+00   0.00000000000000E+00
      0.00000000000000E+00   0.00000000000000E+00  -4.53325511511848E-16  -1.28673827481911E-16  -5.81999338993759E-16
     -1.13151931201039E-16
      2.99843797071037E-01
      2.99843797071037E-01   2.99843797071037E-01   0.00000000000000E+00   0.00000000000000E+00   5.92867856383355E-16
      8.33041700555212E-21   5.92876186800361E-16   1.13466349741085E-16   0.00000000000000E+00   0.00000000000000E+00
      0.00000000000000E+00   0.00000000000000E+00  -4.60010200765468E-16  -1.32865986034893E-16  -5.92876186800361E-16
     -1.13466349741085E-16
      3.12370655418206E-01
      3.12370655418206E-01   3.12370655418206E-01   0.00000000000000E+00   0.00000000000000E+00   6.02667888798513E-16
      8.32774332155734E-21   6.02676216541835E-16   1.13759366265126E-16   0.00000000000000E+00   0.00000000000000E+00
      0.00000000000000E+00   0.00000000000000E+00  -4.65945458947973E-16  -1.36730757593861E-16  -6.02676216541834E-16
     -1.13759366265126E-16
      3.24062389875563E-01
      3.24062389875563E-01   3.24062389875563E-01   0.00000000000000E+00   0.00000000000000E+00   6.11948615928639E-16
      8.34356460345587E-21   6.11956959493243E-16   1.14032465338648E-16   0.00000000000000E+00   0.00000000000000E+00
      0.00000000000000E+00   0.00000000000000E+00  -4.71666507471579E-16  -1.40290452021665E-16  -6.11956959493244E-16
     -1.14032465338648E-16
      3.34974675369097E-01
      3.34974675369097E-01   3.34974675369097E-01   0.00000000000000E+00   0.00000000000000E+00   6.20616792967931E-16
      8.22653994815637E-21   6.20625019507879E-16   1.14287025000404E-16   0.00000000000000E+00   0.00000000000000E+00
      0.00000000000000E+00   0.00000000000000E+00  -4.77051036330163E-16  -1.43573983177716E-16  -6.20625019507879E-16
     -1.14287025000404E-16
      3.45304972302975E-01
      3.45304972302975E-01   3.45304972302975E-01   0.00000000000000E+00   0.00000000000000E+00   6.28786788904908E-16
      8.34300634838942E-21   6.28795131911256E-16   1.14527712817568E-16   0.00000000000000E+00   0.00000000000000E+00
      0.00000000000000E+00   0.00000000000000E+00  -4.82142623479101E-16  -1.46652508432154E-16  -6.28795131911255E-16
     -1.14527712817568E-16
      3.64863667831118E-01
      3.64863667831118E-01   3.64863667831118E-01   0.00000000000000E+00   0.00000000000000E+00   6.44787856996904E-16
      8.34819664735407E-21   6.44796205193552E-16   1.14982630988391E-16   0.00000000000000E+00   0.00000000000000E+00
      0.00000000000000E+00   0.00000000000000E+00  -4.92378240826345E-16  -1.52417964367208E-16  -6.44796205193553E-16
     -1.14982630988390E-16
      3.82336102502926E-01
      3.82336102502926E-01   3.82336102502926E-01   0.00000000000000E+00   0.00000000000000E+00   6.57713826119767E-16
      7.26398239097085E-21   6.57721090102158E-16   1.15388160349422E-16   0.00000000000000E+00   0.00000000000000E+00
      0.00000000000000E+00   0.00000000000000E+00  -5.00207594785675E-16  -1.57513495316483E-16  -6.57721090102158E-16
     -1.15388160349422E-16
      3.98177776605365E-01
      3.98177776605365E-01   3.98177776605365E-01   0.00000000000000E+00   0.00000000000000E+00   6.71031720838342E-16
      7.35343693416016E-21   6.71039074275276E-16   1.15755138906711E-16   0.00000000000000E+00   0.00000000000000E+00
      0.00000000000000E+00   0.00000000000000E+00  -5.08947620953431E-16  -1.62091453321845E-16  -6.71039074275276E-16
     -1.15755138906711E-16
      4.12752116779609E-01
      4.12752116779609E-01   4.12752116779609E-01   0.00000000000000E+00   0.00000000000000E+00   6.84191247929845E-16
      8.20595123473102E-21   6.84199453881079E-16   1.16092172825623E-16   0.00000000000000E+00   0.00000000000000E+00
      0.00000000000000E+00   0.00000000000000E+00  -5.17941976121867E-16  -1.66257477759213E-16  -6.84199453881080E-16
     -1.16092172825623E-16
      4.26160509739913E-01
      4.26160509739913E-01   4.26160509739913E-01   0.00000000000000E+00   0.00000000000000E+00   6.95469299260576E-16
      8.33290993787786E-21   6.95477632170514E-16   1.16401749984224E-16   0.00000000000000E+00   0.00000000000000E+00
      0.00000000000000E+00   0.00000000000000E+00  -5.25438342437625E-16  -1.70039289732887E-16  -6.95477632170513E-16
     -1.16401749984224E-16
      4.38675009836197E-01
      4.38675009836197E-01   4.38675009836197E-01   0.00000000000000E+00   0.00000000000000E+00   7.06202876799851E-16
      8.33964617190873E-21   7.06211216446023E-16   1.16690263336981E-16   0.00000000000000E+00   0.00000000000000E+00
      0.00000000000000E+00   0.00000000000000E+00  -5.32692035378025E-16  -1.73519181067998E-16  -7.06211216446023E-16
     -1.16690263336981E-16
      4.50355209926062E-01
      4.50355209926062E-01   4.50355209926062E-01   0.00000000000000E+00   0.00000000000000E+00   7.16159436534585E-16
      8.34139740404676E-21   7.16167777931989E-16   1.16959173473808E-16   0.00000000000000E+00   0.00000000000000E+00
      0.00000000000000E+00   0.00000000000000E+00  -5.39444567104147E-16  -1.76723210827841E-16  -7.16167777931988E-16
     -1.16959173473808E-16
      4.61256730009937E-01
      4.61256730009937E-01   4.61256730009937E-01   0.00000000000000E+00   0.00000000000000E+00   7.25677468382542E-16
      8.23436247324342E-21   7.25685702745015E-16   1.17209836085191E-16   0.00000000000000E+00   0.00000000000000E+00
      0.00000000000000E+00   0.00000000000000E+00  -5.46006891554518E-16  -1.79678811190497E-16  -7.25685702745015E-16
     -1.17209836085191E-16
      4.71576835689338E-01
      4.71576835689338E-01   4.71576835689338E-01   0.00000000000000E+00   0.00000000000000E+00   7.34740415978595E-16
      8.34346760893503E-21   7.34748759446204E-16   1.17446846227908E-16   0.00000000000000E+00   0.00000000000000E+00
      0.00000000000000E+00   0.00000000000000E+00  -5.52297178073898E-16  -1.82451581372305E-16  -7.34748759446204E-16
     -1.17446846227908E-16
      4.91116235775670E-01
      4.91116235775670E-01   4.91116235775670E-01   0.00000000000000E+00   0.00000000000000E+00   7.52040234080973E-16
      8.08174293902537E-21   7.52048315823912E-16   1.17894832921127E-16   0.00000000000000E+00   0.00000000000000E+00
      0.00000000000000E+00   0.00000000000000E+00  -5.64392865954830E-16  -1.87655449869083E-16  -7.52048315823913E-16
     -1.17894832921127E-16
      5.08310907851642E-01
      5.08310907851642E-01   5.08310907851642E-01   0.00000000000000E+00   0.00000000000000E+00   7.67654277504859E-16
      8.30752503572057E-21   7.67662585029895E-16   1.18288250981611E-16   0.00000000000000E+00   0.00000000000000E+00
      0.00000000000000E+00   0.00000000000000E+00  -5.75453228479224E-16  -1.92209356550672E-16  -7.67662585029896E-16
     -1.18288250981611E-16
      5.23671481572844E-01
      5.23671481572844E-01   5.23671481572844E-01   0.00000000000000E+00   0.00000000000000E+00   7.81255877584320E-16
      1.31099181303810E-20   7.81268987502450E-16   1.18639066916526E-16   0.00000000000000E+00   0.00000000000000E+00
      0.00000000000000E+00   0.00000000000000E+00  -5.84999755376660E-16  -1.96269232125790E-16  -7.81268987502450E-16
     -1.18639066916526E-16
      5.37803209396350E-01
      5.37803209396350E-01   5.37803209396350E-01   0.00000000000000E+00   0.00000000000000E+00   7.94824564784576E-16
      8.11059381144135E-21   7.94832675378388E-16   1.18961289204482E-16   0.00000000000000E+00   0.00000000000000E+00
      0.00000000000000E+00   0.00000000000000E+00  -5.94855719084969E-16  -1.99976956293417E-16  -7.94832675378386E-16
     -1.18961289204482E-16
      5.50804398993976E-01
      5.50804398993976E-01   5.50804398993976E-01   0.00000000000000E+00   0.00000000000000E+00   8.06982007431775E-16
      8.32971465554772E-21   8.06990337146430E-16   1.19257288816994E-16   0.00000000000000E+00   0.00000000000000E+00
      0.00000000000000E+00   0.00000000000000E+00  -6.03625437234999E-16  -2.03364899911432E-16  -8.06990337146430E-16
     -1.19257288816994E-16
      5.62938842618426E-01
      5.62938842618426E-01   5.62938842618426E-01   0.00000000000000E+00   0.00000000000000E+00   8.18755587031726E-16
      8.34227824522666E-21   8.18763929309972E-16   1.19533172337173E-16   0.00000000000000E+00   0.00000000000000E+00
      0.00000000000000E+00   0.00000000000000E+00  -6.12273571376330E-16  -2.06490357933641E-16  -8.18763929309971E-16
     -1.19533172337173E-16
      5.74264323334580E-01
      5.74264323334580E-01   5.74264323334580E-01   0.00000000000000E+00   0.00000000000000E+00   8.29757273727282E-16
      8.22442272856814E-21   8.29765498150011E-16   1.19790331721504E-16   0.00000000000000E+00   0.00000000000000E+00
      0.00000000000000E+00   0.00000000000000E+00  -6.20398494550556E-16  -2.09367003599455E-16  -8.29765498150012E-16
     -1.19790331721504E-16
      5.84985778412539E-01
      5.84985778412539E-01   5.84985778412539E-01   0.00000000000000E+00   0.00000000000000E+00   8.40218576332746E-16
      8.29356079823680E-21   8.40226869893544E-16   1.20033481975372E-16   0.00000000000000E+00   0.00000000000000E+00
      0.00000000000000E+00   0.00000000000000E+00  -6.28176649675096E-16  -2.12050220218449E-16  -8.40226869893545E-16
     -1.20033481975372E-16
      5.95135422553006E-01
      5.95135422553006E-01   5.95135422553006E-01   0.00000000000000E+00   0.00000000000000E+00   8.50401617289317E-16
      8.34359308892715E-21   8.50409960882405E-16   1.20263401899788E-16   0.00000000000000E+00   0.00000000000000E+00
      0.00000000000000E+00   0.00000000000000E+00  -6.35856181424206E-16  -2.14553779458199E-16  -8.50409960882406E-16
     -1.20263401899788E-16
      6.14352082125625E-01
      6.14352082125625E-01   6.14352082125625E-01   0.00000000000000E+00   0.00000000000000E+00   8.69624020480424E-16
      8.31475322291536E-21   8.69632335233647E-16   1.20698021976543E-16   0.00000000000000E+00   0.00000000000000E+00
      0.00000000000000E+00   0.00000000000000E+00  -6.50424987314412E-16  -2.19207347919235E-16  -8.69632335233647E-16
     -1.20698021976544E-16
      6.31262742549530E-01
      6.31262742549530E-01   6.31262742549530E-01   0.00000000000000E+00   0.00000000000000E+00   8.86724805752178E-16
      8.31422740588322E-21   8.86733119979584E-16   1.21079740164453E-16   0.00000000000000E+00   0.00000000000000E+00
      0.00000000000000E+00   0.00000000000000E+00  -6.63496438382737E-16  -2.23236681596847E-16  -8.86733119979584E-16
     -1.21079740164453E-16
      6.46369599194884E-01
      6.46369599194884E-01   6.46369599194884E-01   0.00000000000000E+00   0.00000000000000E+00   9.02599144557513E-16
      8.10134574393699E-21   9.02607245903257E-16   1.21420154390528E-16   0.00000000000000E+00   0.00000000000000E+00
      0.00000000000000E+00   0.00000000000000E+00  -6.75792813226662E-16  -2.26814432676594E-16  -9.02607245903257E-16
     -1.21420154390528E-16
      6.60267907308611E-01
      6.60267907308611E-01   6.60267907308611E-01   0.00000000000000E+00   0.00000000000000E+00   9.09083363433492E-16
      8.29973906744717E-21   9.09091663172560E-16   1.21732849368783E-16   0.00000000000000E+00   0.00000000000000E+00
      0.00000000000000E+00   0.00000000000000E+00  -6.78982375991306E-16  -2.30109287181253E-16  -9.09091663172559E-16
     -1.21732849368783E-16
      6.73239661548089E-01
      6.73239661548089E-01   6.73239661548089E-01   0.00000000000000E+00   0.00000000000000E+00   9.31287892104777E-16
      8.34171707232776E-21   9.31296233821849E-16   1.22024280489919E-16   0.00000000000000E+00   0.00000000000000E+00
      0.00000000000000E+00   0.00000000000000E+00  -6.98098746553789E-16  -2.33197487268061E-16  -9.31296233821850E-16
     -1.22024280489919E-16
      6.85346632171602E-01
      6.85346632171602E-01   6.85346632171602E-01   0.00000000000000E+00   0.00000000000000E+00   9.44752959231990E-16
      8.34314806020063E-21   9.44761302380050E-16   1.22295921466096E-16   0.00000000000000E+00   0.00000000000000E+00
      0.00000000000000E+00   0.00000000000000E+00  -7.08667777985316E-16  -2.36093524394736E-16  -9.44761302380052E-16
     -1.22295921466097E-16
      6.96646471420213E-01
      6.96646471420213E-01   6.96646471420213E-01   0.00000000000000E+00   0.00000000000000E+00   9.57383580748670E-16
      8.18964605376687E-21   9.57391770394724E-16   1.22549140142558E-16   0.00000000000000E+00   0.00000000000000E+00
      0.00000000000000E+00   0.00000000000000E+00  -7.18586554886724E-16  -2.38805215508003E-16  -9.57391770394727E-16
     -1.22549140142558E-16
      7.07343652575566E-01
      7.07343652575566E-01   7.07343652575566E-01   0.00000000000000E+00   0.00000000000000E+00   9.69631537562333E-16
      8.32206666967423E-21   9.69639859629002E-16   1.22788577088993E-16   0.00000000000000E+00   0.00000000000000E+00
      0.00000000000000E+00   0.00000000000000E+00  -7.28265276883216E-16  -2.41374582745786E-16  -9.69639859629002E-16
     -1.22788577088993E-16
      7.17470317402633E-01
      7.17470317402633E-01   7.17470317402633E-01   0.00000000000000E+00   0.00000000000000E+00   9.81200437080289E-16
      8.34360568980351E-21   9.81208780685979E-16   1.23014997474495E-16   0.00000000000000E+00   0.00000000000000E+00
      0.00000000000000E+00   0.00000000000000E+00  -7.37406819469317E-16  -2.43801961216662E-16  -9.81208780685979E-16
     -1.23014997474495E-16
      7.36643469475214E-01
      7.36643469475214E-01   7.36643469475214E-01   0.00000000000000E+00   0.00000000000000E+00   1.00403706028636E-15
      8.31079333835294E-21   1.00404537107970E-15   1.23443034628594E-16   0.00000000000000E+00   0.00000000000000E+00
      0.00000000000000E+00   0.00000000000000E+00  -7.55684241159612E-16  -2.48361129920086E-16  -1.00404537107970E-15
     -1.23443034628594E-16
      7.53515843299084E-01
      7.53515843299084E-01   7.53515843299084E-01   0.00000000000000E+00   0.00000000000000E+00   1.02416046831171E-15
      8.31679461093582E-21   1.02416878510632E-15   1.23819007528421E-16   0.00000000000000E+00   0.00000000000000E+00
      0.00000000000000E+00   0.00000000000000E+00  -7.71859439522336E-16  -2.52309345583984E-16  -1.02416878510632E-15
     -1.23819007528421E-16
      7.68588497248409E-01
      7.68588497248409E-01   7.68588497248409E-01   0.00000000000000E+00   0.00000000000000E+00   1.04271709689431E-15
      8.17997087936734E-21   1.04272527686519E-15   1.24154328218510E-16   0.00000000000000E+00   0.00000000000000E+00
      0.00000000000000E+00   0.00000000000000E+00  -7.86950217352148E-16  -2.55775059513039E-16  -1.04272527686519E-15
     -1.24154328218510E-16
      7.82455338881787E-01
      7.82455338881787E-01   7.82455338881787E-01   0.00000000000000E+00   0.00000000000000E+00   1.05623805245003E-15
      8.31656600653249E-21   1.05624636901604E-15   1.24462370513998E-16   0.00000000000000E+00   0.00000000000000E+00
      0.00000000000000E+00   0.00000000000000E+00  -7.97331114043817E-16  -2.58915254972218E-16  -1.05624636901604E-15
     -1.24462370513998E-16
      7.95397724406274E-01
      7.95397724406274E-01   7.95397724406274E-01   0.00000000000000E+00   0.00000000000000E+00   1.07658202407975E-15
      8.34017360200052E-21   1.07659036425335E-15   1.24749488777096E-16   0.00000000000000E+00   0.00000000000000E+00
      0.00000000000000E+00   0.00000000000000E+00  -8.14777605438908E-16  -2.61812758814445E-16  -1.07659036425335E-15
     -1.24749488777096E-16
      8.07477284229128E-01
      8.07477284229128E-01   8.07477284229128E-01   0.00000000000000E+00   0.00000000000000E+00   1.09221974235264E-15
      8.34350688328764E-21   1.09222808585952E-15   1.25017130939811E-16   0.00000000000000E+00   0.00000000000000E+00
      0.00000000000000E+00   0.00000000000000E+00  -8.27729693839164E-16  -2.64498392020363E-16  -1.09222808585953E-15
     -1.25017130939811E-16
      8.18751540063792E-01
      8.18751540063792E-01   8.18751540063792E-01   0.00000000000000E+00   0.00000000000000E+00   1.10697568718117E-15
      8.21267237958075E-21   1.10698389985355E-15   1.25266641109093E-16   0.00000000000000E+00   0.00000000000000E+00
      0.00000000000000E+00   0.00000000000000E+00  -8.39986271672128E-16  -2.66997628181420E-16  -1.10698389985355E-15
     -1.25266641109093E-16
      8.29424502253941E-01
      8.29424502253941E-01   8.29424502253941E-01   0.00000000000000E+00   0.00000000000000E+00   1.12123983283044E-15
      8.34303481745713E-21   1.12124817586526E-15   1.25502588996896E-16   0.00000000000000E+00   0.00000000000000E+00
      0.00000000000000E+00   0.00000000000000E+00  -8.51884008254699E-16  -2.69364167610557E-16  -1.12124817586526E-15
     -1.25502588996897E-16
      8.39528239793948E-01
      8.39528239793948E-01   8.39528239793948E-01   0.00000000000000E+00   0.00000000000000E+00   1.13529357958427E-15
      8.34361817829662E-21   1.13530192320244E-15   1.25725726333545E-16   0.00000000000000E+00   0.00000000000000E+00
      0.00000000000000E+00   0.00000000000000E+00  -8.63693047956910E-16  -2.71608875245535E-16  -1.13530192320244E-15
     -1.25725726333545E-16
      8.58657982869695E-01
      8.58657982869695E-01   8.58657982869695E-01   0.00000000000000E+00   0.00000000000000E+00   1.16207923737115E-15
      7.58261178753280E-21   1.16208681998293E-15   1.26147602545765E-16   0.00000000000000E+00   0.00000000000000E+00
      0.00000000000000E+00   0.00000000000000E+00  -8.86211261879105E-16  -2.75875558103827E-16  -1.16208681998293E-15
     -1.26147602545765E-16
      8.75492156776353E-01
      8.75492156776353E-01   8.75492156776353E-01   0.00000000000000E+00   0.00000000000000E+00   1.18592561238894E-15
      8.31480101704076E-21   1.18593392718995E-15   1.26518215927487E-16   0.00000000000000E+00   0.00000000000000E+00
      0.00000000000000E+00   0.00000000000000E+00  -9.06289794706725E-16  -2.79644132483232E-16  -1.18593392718996E-15
     -1.26518215927486E-16
      8.90530685466300E-01
      8.90530685466300E-01   8.90530685466300E-01   0.00000000000000E+00   0.00000000000000E+00   1.20647000186746E-15
      1.14402183789364E-20   1.20648144208584E-15   1.26848800488088E-16   0.00000000000000E+00   0.00000000000000E+00
      0.00000000000000E+00   0.00000000000000E+00  -9.23475183598852E-16  -2.83006258486986E-16  -1.20648144208584E-15
     -1.26848800488088E-16
      9.04366131861052E-01
      9.04366131861052E-01   9.04366131861052E-01   0.00000000000000E+00   0.00000000000000E+00   1.22363380686927E-15
      9.83245918629496E-21   1.22364363932845E-15   1.27152530722573E-16   0.00000000000000E+00   0.00000000000000E+00
      0.00000000000000E+00   0.00000000000000E+00  -9.37572780886837E-16  -2.86070858441619E-16  -1.22364363932846E-15
     -1.27152530722574E-16
      9.17279215162820E-01
      9.17279215162820E-01   9.17279215162820E-01   0.00000000000000E+00   0.00000000000000E+00   1.24862078189837E-15
      8.34223871509957E-21   1.24862912413709E-15   1.27435665230577E-16   0.00000000000000E+00   0.00000000000000E+00
      0.00000000000000E+00   0.00000000000000E+00  -9.59733933147395E-16  -2.88895190989691E-16  -1.24862912413709E-15
     -1.27435665230577E-16
      9.29331426244470E-01
      9.29331426244470E-01   9.29331426244470E-01   0.00000000000000E+00   0.00000000000000E+00   1.26734805429608E-15
      8.34350932920443E-21   1.26735639780541E-15   1.27699626308958E-16   0.00000000000000E+00   0.00000000000000E+00
      0.00000000000000E+00   0.00000000000000E+00  -9.75865437268185E-16  -2.91490960537228E-16  -1.26735639780541E-15
     -1.27699626308958E-16
      9.40580156587344E-01
      9.40580156587344E-01   9.40580156587344E-01   0.00000000000000E+00   0.00000000000000E+00   1.28520671001607E-15
      8.34357752997829E-21   1.28521505359360E-15   1.27945734389081E-16   0.00000000000000E+00   0.00000000000000E+00
      0.00000000000000E+00   0.00000000000000E+00  -9.91343172962579E-16  -2.93871880631018E-16  -1.28521505359360E-15
     -1.27945734389081E-16
      9.51078971574026E-01
      9.51078971574026E-01   9.51078971574026E-01   0.00000000000000E+00   0.00000000000000E+00   1.30188226676493E-15
      8.34362047759714E-21   1.30189061038541E-15   1.28175215829398E-16   0.00000000000000E+00   0.00000000000000E+00
      0.00000000000000E+00   0.00000000000000E+00  -1.00583455431501E-15  -2.96056056070402E-16  -1.30189061038541E-15
     -1.28175215829398E-16
      9.61017849761418E-01