DF-ISE text

Info {
  version   = 1.0
  type      = xyplot
  datasets  = [
    "time"
    "top OuterVoltage" "top InnerVoltage" "top QuasiFermiPotential" "top DisplacementCurrent" "top eCurrent"
    "top hCurrent" "top TotalCurrent" "top Charge" "bottom OuterVoltage" "bottom InnerVoltage"
    "bottom QuasiFermiPotential" "bottom DisplacementCurrent" "bottom eCurrent" "bottom hCurrent" "bottom TotalCurrent"
    "bottom Charge" ]
  functions = [
    Time
    OuterVoltage InnerVoltage QuasiFermiPotential DisplacementCurrent eCurrent
    hCurrent TotalCurrent Charge OuterVoltage InnerVoltage
    QuasiFermiPotential DisplacementCurrent eCurrent hCurrent TotalCurrent
    Charge ]
}

Data {
      0.00000000000000E+00
      0.00000000000000E+00   0.00000000000000E+00   0.00000000000000E+00   0.00000000000000E+00  -8.23805335603739E-23
      1.00973471268665E-29  -8.23805234630268E-23   6.25526318424880E-17   0.00000000000000E+00   0.00000000000000E+00
      0.00000000000000E+00   0.00000000000000E+00   8.23805335017275E-23  -1.00387008649654E-29   8.23805234630267E-23
     -6.25526318424880E-17
      0.00000000000000E+00
      0.00000000000000E+00   0.00000000000000E+00   0.00000000000000E+00   0.00000000000000E+00  -2.43092739108304E-18
      4.06499896036715E-27  -2.43092738701804E-18   6.25526033418779E-17   0.00000000000000E+00   0.00000000000000E+00
      0.00000000000000E+00   0.00000000000000E+00   2.43092739326811E-18  -6.25007160168540E-27   2.43092738701804E-18
     -6.25526033418779E-17
      1.00000000000000E-02
      1.00000000000000E-02   1.00000000000000E-02   0.00000000000000E+00   0.00000000000000E+00   1.09304339822794E-16
      5.71355268763993E-19   1.09875695091558E-16   6.29957262917828E-17   0.00000000000000E+00   0.00000000000000E+00
      0.00000000000000E+00   0.00000000000000E+00  -9.92595428947636E-17  -1.06161521967940E-17  -1.09875695091558E-16
     -6.29957262917828E-17
      2.89333333333333E-02
      2.89333333333333E-02   2.89333333333333E-02   0.00000000000000E+00   0.00000000000000E+00   2.36393474119943E-16
      1.15115803706351E-18   2.37544632157007E-16   6.38284643676692E-17   0.00000000000000E+00   0.00000000000000E+00
      0.00000000000000E+00   0.00000000000000E+00  -2.10917672028137E-16  -2.66269601288691E-17  -2.37544632157006E-16
     -6.38284643676691E-17
      6.42755555555556E-02
      6.42755555555556E-02   6.42755555555556E-02   0.00000000000000E+00   0.00000000000000E+00   3.38401882786763E-16
      1.47739707821247E-18   3.39879279864975E-16   6.53617855416183E-17   0.00000000000000E+00   0.00000000000000E+00
      0.00000000000000E+00   0.00000000000000E+00  -2.91781815537786E-16  -4.80974643271887E-17  -3.39879279864975E-16
     -6.53617855416184E-17
      1.14275555555556E-01
      1.14275555555556E-01   1.14275555555556E-01   0.00000000000000E+00   0.00000000000000E+00   3.89686661833275E-16
      1.80382933987294E-18   3.91490491173148E-16   6.74865141643625E-17   0.00000000000000E+00   0.00000000000000E+00
      0.00000000000000E+00   0.00000000000000E+00  -3.20799322630529E-16  -7.06911685426200E-17  -3.91490491173149E-16
     -6.74865141643624E-17
      1.64275555555556E-01
      1.64275555555556E-01   1.64275555555556E-01   0.00000000000000E+00   0.00000000000000E+00   4.29706760057111E-16
      1.73848207368146E-18   4.31445242130792E-16   6.95625061327310E-17   0.00000000000000E+00   0.00000000000000E+00
      0.00000000000000E+00   0.00000000000000E+00  -3.41867309089223E-16  -8.95779330415691E-17  -4.31445242130792E-16
     -6.95625061327310E-17
      2.14275555555556E-01
      2.14275555555556E-01   2.14275555555556E-01   0.00000000000000E+00   0.00000000000000E+00   4.63312858287435E-16
      1.70373953588039E-18   4.65016597823315E-16   7.15931578318383E-17   0.00000000000000E+00   0.00000000000000E+00
      0.00000000000000E+00   0.00000000000000E+00  -3.58001001963090E-16  -1.07015595860226E-16  -4.65016597823315E-16
     -7.15931578318383E-17
      2.64275555555556E-01
      2.64275555555556E-01   2.64275555555556E-01   0.00000000000000E+00   0.00000000000000E+00   4.95585576784470E-16
      1.75135906268592E-18   4.97336935847156E-16   7.35814544173172E-17   0.00000000000000E+00   0.00000000000000E+00
      0.00000000000000E+00   0.00000000000000E+00  -3.73787805476886E-16  -1.23549130370271E-16  -4.97336935847157E-16
     -7.35814544173172E-17
      3.14275555555556E-01
      3.14275555555556E-01   3.14275555555556E-01   0.00000000000000E+00   0.00000000000000E+00   5.26919363430347E-16
      1.61157094102921E-18   5.28530934371377E-16   7.55300018277497E-17   0.00000000000000E+00   0.00000000000000E+00
      0.00000000000000E+00   0.00000000000000E+00  -3.89429761822679E-16  -1.39101172548697E-16  -5.28530934371376E-16
     -7.55300018277497E-17
      3.64275555555556E-01
      3.64275555555556E-01   3.64275555555556E-01   0.00000000000000E+00   0.00000000000000E+00   5.60146943956412E-16
      1.54762832282578E-18   5.61694572279238E-16   7.74410763075627E-17   0.00000000000000E+00   0.00000000000000E+00
      0.00000000000000E+00   0.00000000000000E+00  -4.07649150391238E-16  -1.54045421887999E-16  -5.61694572279237E-16
     -7.74410763075627E-17
      4.14275555555556E-01
      4.14275555555556E-01   4.14275555555556E-01   0.00000000000000E+00   0.00000000000000E+00   5.92903282505462E-16
      1.54928131073699E-18   5.94452563816199E-16   7.93166874797859E-17   0.00000000000000E+00   0.00000000000000E+00
      0.00000000000000E+00   0.00000000000000E+00  -4.25997943261214E-16  -1.68454620554985E-16  -5.94452563816199E-16
     -7.93166874797860E-17
      4.64275555555555E-01
      4.64275555555555E-01   4.64275555555555E-01   0.00000000000000E+00   0.00000000000000E+00   6.26248957962405E-16
      1.55035450875717E-18   6.27799312471162E-16   8.11586401658052E-17   0.00000000000000E+00   0.00000000000000E+00
      0.00000000000000E+00   0.00000000000000E+00  -4.45479079660535E-16  -1.82320232810629E-16  -6.27799312471163E-16
     -8.11586401658051E-17
      5.14275555555555E-01
      5.14275555555555E-01   5.14275555555555E-01   0.00000000000000E+00   0.00000000000000E+00   6.60429615800983E-16
      1.55198966354855E-18   6.61981605464531E-16   8.29685821211405E-17   0.00000000000000E+00   0.00000000000000E+00
      0.00000000000000E+00   0.00000000000000E+00  -4.66239248242625E-16  -1.95742357221908E-16  -6.61981605464534E-16
     -8.29685821211405E-17
      5.64275555555556E-01
      5.64275555555556E-01   5.64275555555556E-01   0.00000000000000E+00   0.00000000000000E+00   6.95494058329765E-16
      1.52968684023451E-18   6.97023745169999E-16   8.47480342512421E-17   0.00000000000000E+00   0.00000000000000E+00
      0.00000000000000E+00   0.00000000000000E+00  -4.88386673388230E-16  -2.08637071781769E-16  -6.97023745169999E-16
     -8.47480342512420E-17
      6.14275555555556E-01
      6.14275555555556E-01   6.14275555555556E-01   0.00000000000000E+00   0.00000000000000E+00   7.31814438718568E-16
      1.55487871853032E-18   7.33369317437098E-16   8.64984077225476E-17   0.00000000000000E+00   0.00000000000000E+00
      0.00000000000000E+00   0.00000000000000E+00  -5.12096691985033E-16  -2.21272625452067E-16  -7.33369317437100E-16
     -8.64984077225477E-17
      6.64275555555556E-01
      6.64275555555556E-01   6.64275555555556E-01   0.00000000000000E+00   0.00000000000000E+00   7.69459654249720E-16
      1.55605275961307E-18   7.71015707009333E-16   8.82210142045172E-17   0.00000000000000E+00   0.00000000000000E+00
      0.00000000000000E+00   0.00000000000000E+00  -5.37511784729494E-16  -2.33503922279839E-16  -7.71015707009333E-16
     -8.82210142045173E-17
      7.14275555555556E-01
      7.14275555555556E-01   7.14275555555556E-01   0.00000000000000E+00   0.00000000000000E+00   8.08520969857391E-16
      1.55722853575901E-18   8.10078198393150E-16   8.99170733784649E-17   0.00000000000000E+00   0.00000000000000E+00
      0.00000000000000E+00   0.00000000000000E+00  -5.64805805582311E-16  -2.45272392810839E-16  -8.10078198393151E-16
     -8.99170733784650E-17
      7.64275555555556E-01
      7.64275555555556E-01   7.64275555555556E-01   0.00000000000000E+00   0.00000000000000E+00   8.49516650897245E-16
      1.55065554861760E-18   8.51067306445863E-16   9.15877201219244E-17   0.00000000000000E+00   0.00000000000000E+00
      0.00000000000000E+00   0.00000000000000E+00  -5.94180728569584E-16  -2.56886577876278E-16  -8.51067306445862E-16
     -9.15877201219244E-17
      8.14275555555556E-01
      8.14275555555556E-01   8.14275555555556E-01   0.00000000000000E+00   0.00000000000000E+00   8.92431181787014E-16
      1.55997016991787E-18   8.93991151956932E-16   9.32340132541669E-17   0.00000000000000E+00   0.00000000000000E+00
      0.00000000000000E+00   0.00000000000000E+00  -6.25755438514618E-16  -2.68235713442315E-16  -8.93991151956932E-16
     -9.32340132541668E-17
      8.64275555555556E-01
      8.64275555555556E-01   8.64275555555556E-01   0.00000000000000E+00   0.00000000000000E+00   9.37149928086013E-16
      1.56268019407671E-18   9.38712608280090E-16   9.48569463624012E-17   0.00000000000000E+00   0.00000000000000E+00
      0.00000000000000E+00   0.00000000000000E+00  -6.59710499887002E-16  -2.79002108393086E-16  -9.38712608280088E-16
     -9.48569463624010E-17
      9.14275555555556E-01
      9.14275555555556E-01   9.14275555555556E-01   0.00000000000000E+00   0.00000000000000E+00   9.84447042617446E-16
      1.43431390510621E-18   9.85881356522552E-16   9.64574589026031E-17   0.00000000000000E+00   0.00000000000000E+00
      0.00000000000000E+00   0.00000000000000E+00  -6.96443564884154E-16  -2.89437791638397E-16  -9.85881356522552E-16
     -9.64574589026030E-17
      9.64275555555556E-01
      9.64275555555556E-01   9.64275555555556E-01   0.00000000000000E+00   0.00000000000000E+00   1.03614388104886E-15
      1.56449059222745E-18   1.03770837164109E-15   9.80364451394078E-17   0.00000000000000E+00   0.00000000000000E+00
      0.00000000000000E+00   0.00000000000000E+00  -7.37426984206698E-16  -3.00281387434392E-16  -1.03770837164109E-15
     -9.80364451394077E-17
      1.00000000000000E+00
      1.00000000000000E+00   1.00000000000000E+00   0.00000000000000E+00   0.00000000000000E+00   1.07447720441661E-15
      1.54673680552758E-18   1.07602394122214E-15   9.91519041740810E-17   0.00000000000000E+00   0.00000000000000E+00
      0.00000000000000E+00   0.00000000000000E+00  -7.68191092654291E-16  -3.07832848567847E-16  -1.07602394122214E-15
     -9.91519041740809E-17
}
