DF-ISE text

Info {
  version   = 1.0
  type      = xyplot
  datasets  = [
    "time"
    "top OuterVoltage" "top InnerVoltage" "top QuasiFermiPotential" "top DisplacementCurrent" "top eCurrent"
    "top hCurrent" "top TotalCurrent" "top Charge" "bottom OuterVoltage" "bottom InnerVoltage"
    "bottom QuasiFermiPotential" "bottom DisplacementCurrent" "bottom eCurrent" "bottom hCurrent" "bottom TotalCurrent"
    "bottom Charge" ]
  functions = [
    Time
    OuterVoltage InnerVoltage QuasiFermiPotential DisplacementCurrent eCurrent
    hCurrent TotalCurrent Charge OuterVoltage InnerVoltage
    QuasiFermiPotential DisplacementCurrent eCurrent hCurrent TotalCurrent
    Charge ]
}

Data {
      0.00000000000000E+00
      0.00000000000000E+00   0.00000000000000E+00   0.00000000000000E+00   0.00000000000000E+00  -3.33770691338147E-21
     -1.05956935417713E-29  -3.33770692397717E-21   7.44947411606069E-17   0.00000000000000E+00   0.00000000000000E+00
      0.00000000000000E+00   0.00000000000000E+00   3.33770691339284E-21   1.05843248311032E-29   3.33770692397717E-21
     -7.44947411606069E-17
      0.00000000000000E+00
      0.00000000000000E+00   0.00000000000000E+00   0.00000000000000E+00   0.00000000000000E+00  -8.63728504239509E-21
     -7.39053199351014E-32  -8.63728504246899E-21   7.44947411917213E-17   0.00000000000000E+00   0.00000000000000E+00
      0.00000000000000E+00   0.00000000000000E+00   8.63728504238876E-21   8.02465709616229E-32   8.63728504246901E-21
     -7.44947411917215E-17
      1.00000000000000E-02
      1.00000000000000E-02   1.00000000000000E-02   0.00000000000000E+00   0.00000000000000E+00   1.15002284789813E-16
      2.29085273989816E-20   1.15025193317212E-16   7.49002575729628E-17   0.00000000000000E+00   0.00000000000000E+00
      0.00000000000000E+00   0.00000000000000E+00  -1.04964725190512E-16  -1.00604681267001E-17  -1.15025193317212E-16
     -7.49002575729628E-17
      2.89333333333333E-02
      2.89333333333333E-02   2.89333333333333E-02   0.00000000000000E+00   0.00000000000000E+00   2.48376513150323E-16
      4.77566725756887E-20   2.48424269822898E-16   7.56616706947207E-17   0.00000000000000E+00   0.00000000000000E+00
      0.00000000000000E+00   0.00000000000000E+00  -2.22918134226734E-16  -2.55061355961640E-17  -2.48424269822898E-16
     -7.56616706947207E-17
      4.63520000000000E-02
      4.63520000000000E-02   4.63520000000000E-02   0.00000000000000E+00   0.00000000000000E+00   3.15674533950800E-16
      1.82726041867792E-19   3.15857259992668E-16   7.63550133036685E-17   0.00000000000000E+00   0.00000000000000E+00
      0.00000000000000E+00   0.00000000000000E+00  -2.78896432468350E-16  -3.69608275243176E-17  -3.15857259992668E-16
     -7.63550133036684E-17
      6.26094222222222E-02
      6.26094222222222E-02   6.26094222222222E-02   0.00000000000000E+00   0.00000000000000E+00   3.53707363892715E-16
      6.38927726637169E-20   3.53771256665378E-16   7.69961326164962E-17   0.00000000000000E+00   0.00000000000000E+00
      0.00000000000000E+00   0.00000000000000E+00  -3.07970427784202E-16  -4.58008288811767E-17  -3.53771256665378E-16
     -7.69961326164961E-17
      7.77830162962963E-02
      7.77830162962963E-02   7.77830162962963E-02   0.00000000000000E+00   0.00000000000000E+00   3.77656833994077E-16
      6.63677653078176E-20   3.77723201759385E-16   7.75894293582523E-17   0.00000000000000E+00   0.00000000000000E+00
      0.00000000000000E+00   0.00000000000000E+00  -3.24491883536902E-16  -5.32313182224837E-17  -3.77723201759385E-16
     -7.75894293582523E-17
      1.06107058567901E-01
      1.06107058567901E-01   1.06107058567901E-01   0.00000000000000E+00   0.00000000000000E+00   4.08142773018186E-16
      6.89714439896366E-20   4.08211744462176E-16   7.86842285768145E-17   0.00000000000000E+00   0.00000000000000E+00
      0.00000000000000E+00   0.00000000000000E+00  -3.42618822856692E-16  -6.55929216054835E-17  -4.08211744462176E-16
     -7.86842285768145E-17
      1.24989753415638E-01
      1.24989753415638E-01   1.24989753415638E-01   0.00000000000000E+00   0.00000000000000E+00   4.27489982656669E-16
      7.89960744781232E-20   4.27568978731147E-16   7.94052292206321E-17   0.00000000000000E+00   0.00000000000000E+00
      0.00000000000000E+00   0.00000000000000E+00  -3.54409409417769E-16  -7.31595693133786E-17  -4.27568978731148E-16
     -7.94052292206321E-17
      1.42613601940192E-01
      1.42613601940192E-01   1.42613601940192E-01   0.00000000000000E+00   0.00000000000000E+00   4.37076133735198E-16
      7.57425070211727E-20   4.37151876242219E-16   8.00719877461371E-17   0.00000000000000E+00   0.00000000000000E+00
      0.00000000000000E+00   0.00000000000000E+00  -3.57261197058299E-16  -7.98906791839199E-17  -4.37151876242219E-16
     -8.00719877461372E-17
      1.59062527229776E-01
      1.59062527229776E-01   1.59062527229776E-01   0.00000000000000E+00   0.00000000000000E+00   4.48776975613872E-16
      6.93248184311099E-20   4.48846300432303E-16   8.06890666038252E-17   0.00000000000000E+00   0.00000000000000E+00
      0.00000000000000E+00   0.00000000000000E+00  -3.62885650719942E-16  -8.59606497123615E-17  -4.48846300432304E-16
     -8.06890666038251E-17
      1.74414857500054E-01
      1.74414857500054E-01   1.74414857500054E-01   0.00000000000000E+00   0.00000000000000E+00   4.59499514965546E-16
      6.88867256155463E-20   4.59568401691162E-16   8.12605682949485E-17   0.00000000000000E+00   0.00000000000000E+00
      0.00000000000000E+00   0.00000000000000E+00  -3.68082939045195E-16  -9.14854626459664E-17  -4.59568401691162E-16
     -8.12605682949486E-17
      1.88743699085647E-01
      1.88743699085647E-01   1.88743699085647E-01   0.00000000000000E+00   0.00000000000000E+00   4.69398832224368E-16
      9.18981474432773E-21   4.69408022039113E-16   8.17901939829339E-17   0.00000000000000E+00   0.00000000000000E+00
      0.00000000000000E+00   0.00000000000000E+00  -3.72930991381540E-16  -9.64770306575724E-17  -4.69408022039113E-16
     -8.17901939829339E-17
      2.02117284565534E-01
      2.02117284565534E-01   2.02117284565534E-01   0.00000000000000E+00   0.00000000000000E+00   4.78563555569815E-16
     -9.87957272857749E-20   4.78464759842530E-16   8.22812927181429E-17   0.00000000000000E+00   0.00000000000000E+00
      0.00000000000000E+00   0.00000000000000E+00  -3.77465985502359E-16  -1.00998774340171E-16  -4.78464759842530E-16
     -8.22812927181428E-17
      2.14420983207030E-01
      2.14420983207030E-01   2.14420983207030E-01   0.00000000000000E+00   0.00000000000000E+00   4.86997378434892E-16
      1.85329773893747E-20   4.87015911412282E-16   8.27304127911787E-17   0.00000000000000E+00   0.00000000000000E+00
      0.00000000000000E+00   0.00000000000000E+00  -3.81706016469674E-16  -1.05309894942609E-16  -4.87015911412282E-16
     -8.27304127911787E-17
      2.37387887337823E-01
      2.37387887337823E-01   2.37387887337823E-01   0.00000000000000E+00   0.00000000000000E+00   5.02743856425243E-16
      6.63793313752207E-20   5.02810235756618E-16   8.35620317815045E-17   0.00000000000000E+00   0.00000000000000E+00
      0.00000000000000E+00   0.00000000000000E+00  -3.89782342626274E-16  -1.13027893130344E-16  -5.02810235756618E-16
     -8.35620317815045E-17
      2.58211213749741E-01
      2.58211213749741E-01   2.58211213749741E-01   0.00000000000000E+00   0.00000000000000E+00   5.16981805593531E-16
      6.14667526693915E-20   5.17043272346200E-16   8.43086470231687E-17   0.00000000000000E+00   0.00000000000000E+00
      0.00000000000000E+00   0.00000000000000E+00  -3.97208492225565E-16  -1.19834780120636E-16  -5.17043272346201E-16
     -8.43086470231686E-17
      2.77368674048706E-01
      2.77368674048706E-01   2.77368674048706E-01   0.00000000000000E+00   0.00000000000000E+00   5.30101905368922E-16
      5.91898023298052E-20   5.30161095171251E-16   8.49895081099482E-17   0.00000000000000E+00   0.00000000000000E+00
      0.00000000000000E+00   0.00000000000000E+00  -4.04216076862708E-16  -1.25945018308543E-16  -5.30161095171251E-16
     -8.49895081099482E-17
      2.94738104719768E-01
      2.94738104719768E-01   2.94738104719768E-01   0.00000000000000E+00   0.00000000000000E+00   5.42055406532501E-16
      9.88216765470830E-20   5.42154228209048E-16   8.56019600720906E-17   0.00000000000000E+00   0.00000000000000E+00
      0.00000000000000E+00   0.00000000000000E+00  -4.10702588941685E-16  -1.31451639267364E-16  -5.42154228209049E-16
     -8.56019600720906E-17
      3.10949573346092E-01
      3.10949573346092E-01   3.10949573346092E-01   0.00000000000000E+00   0.00000000000000E+00   5.53295771050883E-16
      6.84468758726888E-20   5.53364217926756E-16   8.61695071807103E-17   0.00000000000000E+00   0.00000000000000E+00
      0.00000000000000E+00   0.00000000000000E+00  -4.16920231651802E-16  -1.36443986274954E-16  -5.53364217926756E-16
     -8.61695071807103E-17
      3.26080277397328E-01
      3.26080277397328E-01   3.26080277397328E-01   0.00000000000000E+00   0.00000000000000E+00   5.63812113675368E-16
      6.88178651644354E-20   5.63880931540533E-16   8.66957436362107E-17   0.00000000000000E+00   0.00000000000000E+00
      0.00000000000000E+00   0.00000000000000E+00  -4.22819387904957E-16  -1.41061543635576E-16  -5.63880931540533E-16
     -8.66957436362109E-17
      3.40202267845148E-01
      3.40202267845148E-01   3.40202267845148E-01   0.00000000000000E+00   0.00000000000000E+00   5.73637999442332E-16
      4.71664927347200E-20   5.73685165935066E-16   8.71839305443780E-17   0.00000000000000E+00   0.00000000000000E+00
      0.00000000000000E+00   0.00000000000000E+00  -4.28394899800715E-16  -1.45290266134350E-16  -5.73685165935065E-16
     -8.71839305443778E-17
      3.66563316681079E-01
      3.66563316681079E-01   3.66563316681079E-01   0.00000000000000E+00   0.00000000000000E+00   5.92309571966312E-16
      7.30967252714080E-20   5.92382668691583E-16   8.80877285624113E-17   0.00000000000000E+00   0.00000000000000E+00
      0.00000000000000E+00   0.00000000000000E+00  -4.39263442216524E-16  -1.53119226475058E-16  -5.92382668691583E-16
     -8.80877285624113E-17
      3.90112520307844E-01
      3.90112520307844E-01   3.90112520307844E-01   0.00000000000000E+00   0.00000000000000E+00   6.09010367001249E-16
      6.94481629741796E-20   6.09079815164223E-16   8.88870993285517E-17   0.00000000000000E+00   0.00000000000000E+00
      0.00000000000000E+00   0.00000000000000E+00  -4.49114226487649E-16  -1.59965588676575E-16  -6.09079815164224E-16
     -8.88870993285517E-17
      4.11463798262777E-01
      4.11463798262777E-01   4.11463798262777E-01   0.00000000000000E+00   0.00000000000000E+00   6.24295361198761E-16
      6.90236839248189E-20   6.24364384882686E-16   8.96055114808812E-17   0.00000000000000E+00   0.00000000000000E+00
      0.00000000000000E+00   0.00000000000000E+00  -4.58288931781262E-16  -1.66075453101425E-16  -6.24364384882687E-16
     -8.96055114808815E-17
      4.30822290275250E-01
      4.30822290275250E-01   4.30822290275250E-01   0.00000000000000E+00   0.00000000000000E+00   6.38300691817800E-16
      6.79243795433445E-20   6.38368616197344E-16   9.02517884554747E-17   0.00000000000000E+00   0.00000000000000E+00
      0.00000000000000E+00   0.00000000000000E+00  -4.66850796804329E-16  -1.71517819393014E-16  -6.38368616197344E-16
     -9.02517884554748E-17
      4.48632102926726E-01
      4.48632102926726E-01   4.48632102926726E-01   0.00000000000000E+00   0.00000000000000E+00   6.50569160218383E-16
      8.45731003418889E-20   6.50653733318725E-16   9.08421946455444E-17   0.00000000000000E+00   0.00000000000000E+00
      0.00000000000000E+00   0.00000000000000E+00  -4.74195765070564E-16  -1.76457968248162E-16  -6.50653733318726E-16
     -9.08421946455446E-17
      4.65254594734769E-01
      4.65254594734769E-01   4.65254594734769E-01   0.00000000000000E+00   0.00000000000000E+00   6.63617614879760E-16
      7.49981408637593E-20   6.63692613020624E-16   9.13897140099641E-17   0.00000000000000E+00   0.00000000000000E+00
      0.00000000000000E+00   0.00000000000000E+00  -4.82712568654745E-16  -1.80980044365878E-16  -6.63692613020624E-16
     -9.13897140099640E-17
      4.80768920422276E-01
      4.80768920422276E-01   4.80768920422276E-01   0.00000000000000E+00   0.00000000000000E+00   6.75237342247600E-16
      6.84753685052539E-20   6.75305817616105E-16   9.18977213634967E-17   0.00000000000000E+00   0.00000000000000E+00
      0.00000000000000E+00   0.00000000000000E+00  -4.90144604394078E-16  -1.85161213222029E-16  -6.75305817616106E-16
     -9.18977213634968E-17
      4.95248957730617E-01
      4.95248957730617E-01   4.95248957730617E-01   0.00000000000000E+00   0.00000000000000E+00   6.86174036930204E-16
     -1.31825300232557E-20   6.86160854400181E-16   9.23692872840407E-17   0.00000000000000E+00   0.00000000000000E+00
      0.00000000000000E+00   0.00000000000000E+00  -4.97196543918524E-16  -1.88964310481658E-16  -6.86160854400182E-16
     -9.23692872840408E-17
      5.22278360706185E-01
      5.22278360706185E-01   5.22278360706185E-01   0.00000000000000E+00   0.00000000000000E+00   7.06951260186906E-16
      6.89353953128236E-20   7.07020195582219E-16   9.32430417833670E-17   0.00000000000000E+00   0.00000000000000E+00
      0.00000000000000E+00   0.00000000000000E+00  -5.10795974235718E-16  -1.96224221346502E-16  -7.07020195582220E-16
     -9.32430417833672E-17
      5.43541491046965E-01
      5.43541491046965E-01   5.43541491046965E-01   0.00000000000000E+00   0.00000000000000E+00   7.23544367571499E-16
      8.79383503644074E-20   7.23632305921863E-16   9.39245891527739E-17   0.00000000000000E+00   0.00000000000000E+00
      0.00000000000000E+00   0.00000000000000E+00  -5.21823800046645E-16  -2.01808505875218E-16  -7.23632305921863E-16
     -9.39245891527739E-17
      5.62820062555940E-01
      5.62820062555940E-01   5.62820062555940E-01   0.00000000000000E+00   0.00000000000000E+00   7.38837851242826E-16
      7.91932962792486E-20   7.38917044539105E-16   9.45382203844357E-17   0.00000000000000E+00   0.00000000000000E+00
      0.00000000000000E+00   0.00000000000000E+00  -5.32162062907922E-16  -2.06754981631184E-16  -7.38917044539106E-16
     -9.45382203844357E-17
      5.80556348344196E-01
      5.80556348344196E-01   5.80556348344196E-01   0.00000000000000E+00   0.00000000000000E+00   7.53042341270941E-16
      6.83437426832752E-20   7.53110685013625E-16   9.50992248780599E-17   0.00000000000000E+00   0.00000000000000E+00
      0.00000000000000E+00   0.00000000000000E+00  -5.41890317180270E-16  -2.11220367833355E-16  -7.53110685013625E-16
     -9.50992248780599E-17
      5.96873731269392E-01
      5.96873731269392E-01   5.96873731269392E-01   0.00000000000000E+00   0.00000000000000E+00   7.66261020600519E-16
      6.86001408516859E-20   7.66329620741370E-16   9.56124158631159E-17   0.00000000000000E+00   0.00000000000000E+00
      0.00000000000000E+00   0.00000000000000E+00  -5.51050439735112E-16  -2.15279181006259E-16  -7.66329620741370E-16
     -9.56124158631160E-17
      6.12103288666241E-01
      6.12103288666241E-01   6.12103288666241E-01   0.00000000000000E+00   0.00000000000000E+00   7.78827343029951E-16
      6.89691116468403E-20   7.78896312141597E-16   9.60889045348349E-17   0.00000000000000E+00   0.00000000000000E+00
      0.00000000000000E+00   0.00000000000000E+00  -5.59863771952553E-16  -2.19032540189044E-16  -7.78896312141597E-16
     -9.60889045348349E-17
      6.26317542236634E-01
      6.26317542236634E-01   6.26317542236634E-01   0.00000000000000E+00   0.00000000000000E+00   7.89270753987267E-16
      5.10289445496366E-19   7.89781043432764E-16   9.65314952169910E-17   0.00000000000000E+00   0.00000000000000E+00
      0.00000000000000E+00   0.00000000000000E+00  -5.66820928818324E-16  -2.22960114614440E-16  -7.89781043432764E-16
     -9.65314952169909E-17
      6.53229862329911E-01
      6.53229862329911E-01   6.53229862329911E-01   0.00000000000000E+00   0.00000000000000E+00   8.13766113606896E-16
      6.88918650310047E-20   8.13835005471927E-16   9.73639441976084E-17   0.00000000000000E+00   0.00000000000000E+00
      0.00000000000000E+00   0.00000000000000E+00  -5.84733818457407E-16  -2.29101187014520E-16  -8.13835005471927E-16
     -9.73639441976084E-17
      6.77271534946572E-01
      6.77271534946572E-01   6.77271534946572E-01   0.00000000000000E+00   0.00000000000000E+00   8.34654386854089E-16
      8.32681207331524E-20   8.34737654974822E-16   9.81016294118127E-17   0.00000000000000E+00   0.00000000000000E+00
      0.00000000000000E+00   0.00000000000000E+00  -5.99778950192111E-16  -2.34958704782712E-16  -8.34737654974823E-16
     -9.81016294118126E-17
      6.98748762484122E-01
      6.98748762484122E-01   6.98748762484122E-01   0.00000000000000E+00   0.00000000000000E+00   8.54087038111933E-16
      6.86908214945230E-20   8.54155728933427E-16   9.87559873338038E-17   0.00000000000000E+00   0.00000000000000E+00
      0.00000000000000E+00   0.00000000000000E+00  -6.14071521550370E-16  -2.40084207383057E-16  -8.54155728933426E-16
     -9.87559873338037E-17
      7.17935085751001E-01
      7.17935085751001E-01   7.17935085751001E-01   0.00000000000000E+00   0.00000000000000E+00   8.70866929444725E-16
      7.38364945964420E-20   8.70940765939321E-16   9.93369279893933E-17   0.00000000000000E+00   0.00000000000000E+00
      0.00000000000000E+00   0.00000000000000E+00  -6.26360529770506E-16  -2.44580236168815E-16  -8.70940765939321E-16
     -9.93369279893934E-17
      7.35586503156529E-01
      7.35586503156529E-01   7.35586503156529E-01   0.00000000000000E+00   0.00000000000000E+00   8.87971268474475E-16
      6.89965175924696E-20   8.88040264992067E-16   9.98684386880251E-17   0.00000000000000E+00   0.00000000000000E+00
      0.00000000000000E+00   0.00000000000000E+00  -6.39427410923615E-16  -2.48612854068452E-16  -8.88040264992068E-16
     -9.98684386880250E-17
      7.51825807169614E-01
      7.51825807169614E-01   7.51825807169614E-01   0.00000000000000E+00   0.00000000000000E+00   9.03190396575953E-16
      7.52379411685904E-20   9.03265634517121E-16   1.00354973885846E-16   0.00000000000000E+00   0.00000000000000E+00
      0.00000000000000E+00   0.00000000000000E+00  -6.51001463570070E-16  -2.52264170947052E-16  -9.03265634517121E-16
     -1.00354973885846E-16
      7.66982490915161E-01
      7.66982490915161E-01   7.66982490915161E-01   0.00000000000000E+00   0.00000000000000E+00   9.17854278882921E-16
      6.88242950785037E-20   9.17923103177999E-16   1.00806987122589E-16   0.00000000000000E+00   0.00000000000000E+00
      0.00000000000000E+00   0.00000000000000E+00  -6.62303906597447E-16  -2.55619196580552E-16  -9.17923103178000E-16
     -1.00806987122589E-16
      7.81128729077671E-01
      7.81128729077671E-01   7.81128729077671E-01   0.00000000000000E+00   0.00000000000000E+00   9.31612129103253E-16
      2.28395170204491E-20   9.31634968620274E-16   1.01227077339220E-16   0.00000000000000E+00   0.00000000000000E+00
      0.00000000000000E+00   0.00000000000000E+00  -6.72940189837021E-16  -2.58694778783252E-16  -9.31634968620273E-16
     -1.01227077339220E-16
      8.07535040314357E-01
      8.07535040314357E-01   8.07535040314357E-01   0.00000000000000E+00   0.00000000000000E+00   9.58206854082574E-16
      6.88197980349641E-20   9.58275673880609E-16   1.02006712985948E-16   0.00000000000000E+00   0.00000000000000E+00
      0.00000000000000E+00   0.00000000000000E+00  -6.93694051594148E-16  -2.64581622286460E-16  -9.58275673880609E-16
     -1.02006712985948E-16
      8.30772594202641E-01
      8.30772594202641E-01   8.30772594202641E-01   0.00000000000000E+00   0.00000000000000E+00   9.82231654149774E-16
      6.74522806453787E-20   9.82299106430420E-16   1.02688015512869E-16   0.00000000000000E+00   0.00000000000000E+00
      0.00000000000000E+00   0.00000000000000E+00  -7.12531427986018E-16  -2.69767678444402E-16  -9.82299106430420E-16
     -1.02688015512869E-16
      8.51531475676174E-01
      8.51531475676174E-01   8.51531475676174E-01   0.00000000000000E+00   0.00000000000000E+00   1.00440371978650E-15
      6.86687286201515E-20   1.00447238851512E-15   1.03292954379088E-16   0.00000000000000E+00   0.00000000000000E+00
      0.00000000000000E+00   0.00000000000000E+00  -7.30045618925132E-16  -2.74426769589993E-16  -1.00447238851513E-15
     -1.03292954379088E-16
      8.70352861545511E-01
      8.70352861545511E-01   8.70352861545511E-01   0.00000000000000E+00   0.00000000000000E+00   1.02510251455387E-15
      7.14909686226500E-20   1.02517400552249E-15   1.03838485520728E-16   0.00000000000000E+00   0.00000000000000E+00
      0.00000000000000E+00   0.00000000000000E+00  -7.46536936603560E-16  -2.78637068918932E-16  -1.02517400552249E-15
     -1.03838485520727E-16
      8.87668536545301E-01
      8.87668536545301E-01   8.87668536545301E-01   0.00000000000000E+00   0.00000000000000E+00   1.04456873754566E-15
      6.83645991897732E-20   1.04463710214485E-15   1.04337946718745E-16   0.00000000000000E+00   0.00000000000000E+00
      0.00000000000000E+00   0.00000000000000E+00  -7.62175997948305E-16  -2.82461104196542E-16  -1.04463710214485E-15
     -1.04337946718745E-16
      9.03598957545108E-01
      9.03598957545108E-01   9.03598957545108E-01   0.00000000000000E+00   0.00000000000000E+00   1.06273125139802E-15
      6.90632297268437E-20   1.06280031462775E-15   1.04795432695752E-16   0.00000000000000E+00   0.00000000000000E+00
      0.00000000000000E+00   0.00000000000000E+00  -7.76871394241555E-16  -2.85928920386194E-16  -1.06280031462775E-15
     -1.04795432695752E-16
      9.18467350478260E-01
      9.18467350478260E-01   9.18467350478260E-01   0.00000000000000E+00   0.00000000000000E+00   1.08009860260567E-15
      4.88372846968279E-20   1.08014743989037E-15   1.05220703014367E-16   0.00000000000000E+00   0.00000000000000E+00
      0.00000000000000E+00   0.00000000000000E+00  -7.91052943830683E-16  -2.89094496059685E-16  -1.08014743989037E-15
     -1.05220703014367E-16
      9.32344517215870E-01
      9.32344517215870E-01   9.32344517215870E-01   0.00000000000000E+00   0.00000000000000E+00   1.09654332189257E-15
      6.53255170245122E-20   1.09660864740959E-15   1.05616149379247E-16   0.00000000000000E+00   0.00000000000000E+00
      0.00000000000000E+00   0.00000000000000E+00  -8.04564922568594E-16  -2.92043724840998E-16  -1.09660864740959E-15
     -1.05616149379247E-16
      9.57878504013071E-01
      9.57878504013071E-01   9.57878504013071E-01   0.00000000000000E+00   0.00000000000000E+00   1.12776413336367E-15
      6.87289810583115E-20   1.12783286234473E-15   1.06340124514674E-16   0.00000000000000E+00   0.00000000000000E+00
      0.00000000000000E+00   0.00000000000000E+00  -8.30454561797550E-16  -2.97378300547180E-16  -1.12783286234473E-15
     -1.06340124514674E-16
      9.78939252006536E-01
      9.78939252006536E-01   9.78939252006536E-01   0.00000000000000E+00   0.00000000000000E+00   1.15415356999049E-15
      7.10833256237804E-20   1.15422465331611E-15   1.06933786340696E-16   0.00000000000000E+00   0.00000000000000E+00
      0.00000000000000E+00   0.00000000000000E+00  -8.52465507557588E-16  -3.01759145758522E-16  -1.15422465331611E-15
     -1.06933786340696E-16
      1.00000000000000E+00
      1.00000000000000E+00   1.00000000000000E+00   0.00000000000000E+00   0.00000000000000E+00   1.18136317750681E-15
      7.49823424434029E-20   1.18143815984926E-15   1.07524374410462E-16   0.00000000000000E+00   0.00000000000000E+00
      0.00000000000000E+00   0.00000000000000E+00  -8.75277981251138E-16  -3.06160178598119E-16  -1.18143815984926E-15
     -1.07524374410462E-16
}
