DF-ISE text

Info {
  version   = 1.0
  type      = xyplot
  datasets  = [
    "time"
    "top OuterVoltage" "top InnerVoltage" "top QuasiFermiPotential" "top DisplacementCurrent" "top eCurrent"
    "top hCurrent" "top TotalCurrent" "top Charge" "bottom OuterVoltage" "bottom InnerVoltage"
    "bottom QuasiFermiPotential" "bottom DisplacementCurrent" "bottom eCurrent" "bottom hCurrent" "bottom TotalCurrent"
    "bottom Charge" ]
  functions = [
    Time
    OuterVoltage InnerVoltage QuasiFermiPotential DisplacementCurrent eCurrent
    hCurrent TotalCurrent Charge OuterVoltage InnerVoltage
    QuasiFermiPotential DisplacementCurrent eCurrent hCurrent TotalCurrent
    Charge ]
}

Data {
      0.00000000000000E+00
      0.00000000000000E+00   0.00000000000000E+00   0.00000000000000E+00   0.00000000000000E+00  -9.96959252742136E-22
      2.10958671072268E-30  -9.96959250632549E-22   9.61865973500189E-17   0.00000000000000E+00   0.00000000000000E+00
      0.00000000000000E+00   0.00000000000000E+00   9.96959252666926E-22  -2.03437888105428E-30   9.96959250632547E-22
     -9.61865973500187E-17
      0.00000000000000E+00
      0.00000000000000E+00   0.00000000000000E+00   0.00000000000000E+00   0.00000000000000E+00  -3.02138779802575E-18
      3.87953721664495E-28  -3.02138779763779E-18   9.61865771590150E-17   0.00000000000000E+00   0.00000000000000E+00
      0.00000000000000E+00   0.00000000000000E+00   3.02138780005658E-18  -2.41879285037453E-27   3.02138779763779E-18
     -9.61865771590149E-17
      1.00000000000000E-02
      1.00000000000000E-02   1.00000000000000E-02   0.00000000000000E+00   0.00000000000000E+00   1.25059994486878E-16
      2.69046917104908E-21   1.25062684956049E-16   9.65185652555102E-17   0.00000000000000E+00   0.00000000000000E+00
      0.00000000000000E+00   0.00000000000000E+00  -1.15023728834162E-16  -1.00389561218871E-17  -1.25062684956049E-16
     -9.65185652555101E-17
      2.89333333333333E-02
      2.89333333333333E-02   2.89333333333333E-02   0.00000000000000E+00   0.00000000000000E+00   2.68866996811161E-16
      1.39726055977178E-20   2.68880969416759E-16   9.71437467141635E-17   0.00000000000000E+00   0.00000000000000E+00
      0.00000000000000E+00   0.00000000000000E+00  -2.43410990744372E-16  -2.54699786723872E-17  -2.68880969416759E-16
     -9.71437467141636E-17
      4.63520000000000E-02
      4.63520000000000E-02   4.63520000000000E-02   0.00000000000000E+00   0.00000000000000E+00   3.43068189456852E-16
      2.05858458160724E-20   3.43088775302668E-16   9.77150687916228E-17   0.00000000000000E+00   0.00000000000000E+00
      0.00000000000000E+00   0.00000000000000E+00  -3.06293503038486E-16  -3.67952722641816E-17  -3.43088775302668E-16
     -9.77150687916229E-17
      6.23771733333333E-02
      6.23771733333333E-02   6.23771733333333E-02   0.00000000000000E+00   0.00000000000000E+00   3.83909559606320E-16
      7.62232896820469E-21   3.83917181935288E-16   9.82374908751744E-17   0.00000000000000E+00   0.00000000000000E+00
      0.00000000000000E+00   0.00000000000000E+00  -3.38297984681601E-16  -4.56191972536870E-17  -3.83917181935288E-16
     -9.82374908751744E-17
      7.71203328000000E-02
      7.71203328000000E-02   7.71203328000000E-02   0.00000000000000E+00   0.00000000000000E+00   4.08828215776931E-16
     -2.80880527472504E-22   4.08827934896404E-16   9.87154604610283E-17   0.00000000000000E+00   0.00000000000000E+00
      0.00000000000000E+00   0.00000000000000E+00  -3.55979735672599E-16  -5.28481992238049E-17  -4.08827934896404E-16
     -9.87154604610283E-17
      9.08806149688889E-02
      9.08806149688889E-02   9.08806149688889E-02   0.00000000000000E+00   0.00000000000000E+00   4.27452040462253E-16
      8.10077777243487E-21   4.27460141240025E-16   9.91593010430798E-17   0.00000000000000E+00   0.00000000000000E+00
      0.00000000000000E+00   0.00000000000000E+00  -3.68384764516044E-16  -5.90753767239816E-17  -4.27460141240026E-16
     -9.91593010430795E-17
      1.03723544993185E-01
      1.03723544993185E-01   1.03723544993185E-01   0.00000000000000E+00   0.00000000000000E+00   4.41274164777367E-16
      8.19623551274588E-21   4.41282361012880E-16   9.95716066033724E-17   0.00000000000000E+00   0.00000000000000E+00
      0.00000000000000E+00   0.00000000000000E+00  -3.76740736186777E-16  -6.45416248261029E-17  -4.41282361012880E-16
     -9.95716066033725E-17
      1.15710279682528E-01
      1.15710279682528E-01   1.15710279682528E-01   0.00000000000000E+00   0.00000000000000E+00   4.52516900967712E-16
      8.25175538982602E-21   4.52525152723102E-16   9.99547513752583E-17   0.00000000000000E+00   0.00000000000000E+00
      0.00000000000000E+00   0.00000000000000E+00  -3.83104730394546E-16  -6.94204223285550E-17  -4.52525152723101E-16
     -9.99547513752583E-17
      1.26897898725915E-01
      1.26897898725915E-01   1.26897898725915E-01   0.00000000000000E+00   0.00000000000000E+00   4.62336851365027E-16
      8.27737157600353E-21   4.62345128736603E-16   1.00310911811575E-16   0.00000000000000E+00   0.00000000000000E+00
      0.00000000000000E+00   0.00000000000000E+00  -3.88523897752662E-16  -7.38212309839412E-17  -4.62345128736603E-16
     -1.00310911811575E-16
      1.37339676499743E-01
      1.37339676499743E-01   1.37339676499743E-01   0.00000000000000E+00   0.00000000000000E+00   4.71094434037411E-16
      8.29530321838162E-21   4.71102729340629E-16   1.00642085846475E-16   0.00000000000000E+00   0.00000000000000E+00
      0.00000000000000E+00   0.00000000000000E+00  -3.93281638910740E-16  -7.78210904298897E-17  -4.71102729340630E-16
     -1.00642085846475E-16
      1.57109442418191E-01
      1.57109442418191E-01   1.57109442418191E-01   0.00000000000000E+00   0.00000000000000E+00   4.86638203240617E-16
      3.72121503482166E-20   4.86675415390965E-16   1.01265864971480E-16   0.00000000000000E+00   0.00000000000000E+00
      0.00000000000000E+00   0.00000000000000E+00  -4.01476335753483E-16  -8.51990796374825E-17  -4.86675415390965E-16
     -1.01265864971480E-16
      1.75034030184250E-01
      1.75034030184250E-01   1.75034030184250E-01   0.00000000000000E+00   0.00000000000000E+00   5.00783187575981E-16
      8.31813575037596E-21   5.00791505711731E-16   1.01827808847668E-16   0.00000000000000E+00   0.00000000000000E+00
      0.00000000000000E+00   0.00000000000000E+00  -4.09160084803020E-16  -9.16314209087113E-17  -5.00791505711731E-16
     -1.01827808847668E-16
      1.91285656425476E-01
      1.91285656425476E-01   1.91285656425476E-01   0.00000000000000E+00   0.00000000000000E+00   5.13165258348246E-16
      2.71884010531937E-20   5.13192446749299E-16   1.02334380267536E-16   0.00000000000000E+00   0.00000000000000E+00
      0.00000000000000E+00   0.00000000000000E+00  -4.15833184575913E-16  -9.73592621733872E-17  -5.13192446749300E-16
     -1.02334380267536E-16
      2.06237152567405E-01
      2.06237152567405E-01   2.06237152567405E-01   0.00000000000000E+00   0.00000000000000E+00   5.24659879224780E-16
      2.96439426485284E-20   5.24689523167429E-16   1.02798005492634E-16   0.00000000000000E+00   0.00000000000000E+00
      0.00000000000000E+00   0.00000000000000E+00  -4.22170911955596E-16  -1.02518611211832E-16  -5.24689523167428E-16
     -1.02798005492634E-16
      2.20191882299872E-01
      2.20191882299872E-01   2.20191882299872E-01   0.00000000000000E+00   0.00000000000000E+00   5.35302159958565E-16
      8.15249423713948E-21   5.35310312452802E-16   1.03228657555786E-16   0.00000000000000E+00   0.00000000000000E+00
      0.00000000000000E+00   0.00000000000000E+00  -4.28094323405193E-16  -1.07215989047608E-16  -5.35310312452802E-16
     -1.03228657555786E-16
      2.33216296716841E-01
      2.33216296716841E-01   2.33216296716841E-01   0.00000000000000E+00   0.00000000000000E+00   5.45378178086352E-16
      8.31878355044362E-21   5.45386496869903E-16   1.03628823133069E-16   0.00000000000000E+00   0.00000000000000E+00
      0.00000000000000E+00   0.00000000000000E+00  -4.33832848977558E-16  -1.11553647892343E-16  -5.45386496869901E-16
     -1.03628823133069E-16
      2.45372416839345E-01
      2.45372416839345E-01   2.45372416839345E-01   0.00000000000000E+00   0.00000000000000E+00   5.54866928335568E-16
      8.32266068797243E-21   5.54875250996256E-16   1.04000781559412E-16   0.00000000000000E+00   0.00000000000000E+00
      0.00000000000000E+00   0.00000000000000E+00  -4.39323565701824E-16  -1.15551685294430E-16  -5.54875250996254E-16
     -1.04000781559412E-16
      2.56718128953683E-01
      2.56718128953683E-01   2.56718128953683E-01   0.00000000000000E+00   0.00000000000000E+00   5.63314773680854E-16
      8.31959091700261E-21   5.63323093271771E-16   1.04346624895232E-16   0.00000000000000E+00   0.00000000000000E+00
      0.00000000000000E+00   0.00000000000000E+00  -4.44079151477246E-16  -1.19243941794523E-16  -5.63323093271769E-16
     -1.04346624895232E-16
      2.67458736421922E-01
      2.67458736421922E-01   2.67458736421922E-01   0.00000000000000E+00   0.00000000000000E+00   5.71938489493218E-16
      8.30110984398996E-21   5.71946790603062E-16   1.04672862774010E-16   0.00000000000000E+00   0.00000000000000E+00
      0.00000000000000E+00   0.00000000000000E+00  -4.49241252191465E-16  -1.22705538411596E-16  -5.71946790603061E-16
     -1.04672862774010E-16
      2.77626511491855E-01
      2.77626511491855E-01   2.77626511491855E-01   0.00000000000000E+00   0.00000000000000E+00   5.80003254564874E-16
      8.32346586998844E-21   5.80011578030744E-16   1.04980671320339E-16   0.00000000000000E+00   0.00000000000000E+00
      0.00000000000000E+00   0.00000000000000E+00  -4.54060353751248E-16  -1.25951224279496E-16  -5.80011578030744E-16
     -1.04980671320339E-16
      2.96877498957596E-01
      2.96877498957596E-01   2.96877498957596E-01   0.00000000000000E+00   0.00000000000000E+00   5.95059927365984E-16
      8.31695909061344E-21   5.95068244325075E-16   1.05560744599737E-16   0.00000000000000E+00   0.00000000000000E+00
      0.00000000000000E+00   0.00000000000000E+00  -4.63063034884028E-16  -1.32005209441046E-16  -5.95068244325074E-16
     -1.05560744599737E-16
      3.14075047760324E-01
      3.14075047760324E-01   3.14075047760324E-01   0.00000000000000E+00   0.00000000000000E+00   6.08786716809531E-16
     -2.46749627375280E-21   6.08784249313257E-16   1.06075984888617E-16   0.00000000000000E+00   0.00000000000000E+00
      0.00000000000000E+00   0.00000000000000E+00  -4.71489748871351E-16  -1.37294500441908E-16  -6.08784249313259E-16
     -1.06075984888617E-16
      3.21871269884227E-01
      3.21871269884227E-01   3.21871269884227E-01   0.00000000000000E+00   0.00000000000000E+00   6.14925869458657E-16
      1.38788228822908E-19   6.15064657687480E-16   1.06308653048323E-16   0.00000000000000E+00   0.00000000000000E+00
      0.00000000000000E+00   0.00000000000000E+00  -4.75339497215766E-16  -1.39725160471715E-16  -6.15064657687481E-16
     -1.06308653048323E-16
      3.36424217848847E-01
      3.36424217848847E-01   3.36424217848847E-01   0.00000000000000E+00   0.00000000000000E+00   6.26669332921148E-16
      8.24211728303768E-21   6.26677575038431E-16   1.06741470382325E-16   0.00000000000000E+00   0.00000000000000E+00
      0.00000000000000E+00   0.00000000000000E+00  -4.82620476826637E-16  -1.44057098211793E-16  -6.26677575038430E-16
     -1.06741470382324E-16
      3.50006969282492E-01
      3.50006969282492E-01   3.50006969282492E-01   0.00000000000000E+00   0.00000000000000E+00   6.37614364447216E-16
      8.30944962895132E-21   6.37622673896845E-16   1.07143693903352E-16   0.00000000000000E+00   0.00000000000000E+00
      0.00000000000000E+00   0.00000000000000E+00  -4.89522390125934E-16  -1.48100283770911E-16  -6.37622673896844E-16
     -1.07143693903352E-16
      3.62684203953894E-01
      3.62684203953894E-01   3.62684203953894E-01   0.00000000000000E+00   0.00000000000000E+00   6.48011595708581E-16
      8.30441552327935E-21   6.48019900124105E-16   1.07517606114575E-16   0.00000000000000E+00   0.00000000000000E+00
      0.00000000000000E+00   0.00000000000000E+00  -4.96176256400004E-16  -1.51843643724099E-16  -6.48019900124103E-16
     -1.07517606114575E-16
      3.74516289647203E-01
      3.74516289647203E-01   3.74516289647203E-01   0.00000000000000E+00   0.00000000000000E+00   6.57764787899553E-16
      8.32346082117404E-21   6.57773111360374E-16   1.07865302374309E-16   0.00000000000000E+00   0.00000000000000E+00
      0.00000000000000E+00   0.00000000000000E+00  -5.02458866926082E-16  -1.55314244434291E-16  -6.57773111360373E-16
     -1.07865302374309E-16
      3.85559569627624E-01
      3.85559569627624E-01   3.85559569627624E-01   0.00000000000000E+00   0.00000000000000E+00   6.66810131838580E-16
      8.27031747351944E-21   6.66818402156054E-16   1.08188708601797E-16   0.00000000000000E+00   0.00000000000000E+00
      0.00000000000000E+00   0.00000000000000E+00  -5.08286649528714E-16  -1.58531752627339E-16  -6.66818402156052E-16
     -1.08188708601796E-16
      3.96013874675756E-01
      3.96013874675756E-01   3.96013874675756E-01   0.00000000000000E+00   0.00000000000000E+00   6.75742442460365E-16
      8.29589537198072E-21   6.75750738355737E-16   1.08493888738851E-16   0.00000000000000E+00   0.00000000000000E+00
      0.00000000000000E+00   0.00000000000000E+00  -5.14196100871281E-16  -1.61554637484456E-16  -6.75750738355736E-16
     -1.08493888738851E-16
      4.15807358900220E-01
      4.15807358900220E-01   4.15807358900220E-01   0.00000000000000E+00   0.00000000000000E+00   6.82120983218086E-16
      8.30956888330052E-21   6.82129292786969E-16   1.09069124333285E-16   0.00000000000000E+00   0.00000000000000E+00
      0.00000000000000E+00   0.00000000000000E+00  -5.14929617816365E-16  -1.67199674970603E-16  -6.82129292786968E-16
     -1.09069124333285E-16
      4.33489538140741E-01
      4.33489538140741E-01   4.33489538140741E-01   0.00000000000000E+00   0.00000000000000E+00   7.07767110757072E-16
      8.31140873671180E-21   7.07775422165809E-16   1.09580195899882E-16   0.00000000000000E+00   0.00000000000000E+00
      0.00000000000000E+00   0.00000000000000E+00  -5.35635058743039E-16  -1.72140363422769E-16  -7.07775422165808E-16
     -1.09580195899882E-16
      4.49285618262273E-01
      4.49285618262273E-01   4.49285618262273E-01   0.00000000000000E+00   0.00000000000000E+00   7.21369898062332E-16
      8.31124270835085E-21   7.21378209305040E-16   1.10034550210061E-16   0.00000000000000E+00   0.00000000000000E+00
      0.00000000000000E+00   0.00000000000000E+00  -5.44905120974742E-16  -1.76473088330298E-16  -7.21378209305040E-16
     -1.10034550210061E-16
      4.63607397572462E-01
      4.63607397572462E-01   4.63607397572462E-01   0.00000000000000E+00   0.00000000000000E+00   7.33870924990700E-16
      8.13816470794936E-21   7.33879063155408E-16   1.10444727139222E-16   0.00000000000000E+00   0.00000000000000E+00
      0.00000000000000E+00   0.00000000000000E+00  -5.53531027260683E-16  -1.80348035894724E-16  -7.33879063155408E-16
     -1.10444727139222E-16
      4.76783434537836E-01
      4.76783434537836E-01   4.76783434537836E-01   0.00000000000000E+00   0.00000000000000E+00   7.45713038962628E-16
      8.31110094843985E-21   7.45721350063577E-16   1.10820621717094E-16   0.00000000000000E+00   0.00000000000000E+00
      0.00000000000000E+00   0.00000000000000E+00  -5.61838118871136E-16  -1.83883231192440E-16  -7.45721350063577E-16
     -1.10820621717094E-16
      4.89081069038851E-01
      4.89081069038851E-01   4.89081069038851E-01   0.00000000000000E+00   0.00000000000000E+00   7.56740266375193E-16
      8.32177529553003E-21   7.56748588150488E-16   1.11170202366331E-16   0.00000000000000E+00   0.00000000000000E+00
      0.00000000000000E+00   0.00000000000000E+00  -5.69581119335282E-16  -1.87167468815206E-16  -7.56748588150488E-16
     -1.11170202366331E-16
      5.00558861239799E-01
      5.00558861239799E-01   5.00558861239799E-01   0.00000000000000E+00   0.00000000000000E+00   7.67056400453146E-16
      7.65697660914448E-21   7.67064057429755E-16   1.11495397099931E-16   0.00000000000000E+00   0.00000000000000E+00
      0.00000000000000E+00   0.00000000000000E+00  -5.76839751348061E-16  -1.90224306081693E-16  -7.67064057429754E-16
     -1.11495397099931E-16
      5.11424504523363E-01
      5.11424504523363E-01   5.11424504523363E-01   0.00000000000000E+00   0.00000000000000E+00   7.77247962679753E-16
      8.24594238319715E-21   7.77256208622137E-16   1.11802296763806E-16   0.00000000000000E+00   0.00000000000000E+00
      0.00000000000000E+00   0.00000000000000E+00  -5.84143287992569E-16  -1.93112920629567E-16  -7.77256208622136E-16
     -1.11802296763806E-16
      5.21710646831804E-01
      5.21710646831804E-01   5.21710646831804E-01   0.00000000000000E+00   0.00000000000000E+00   7.86916801090293E-16
      8.32343237644533E-21   7.86925124522670E-16   1.12091984164655E-16   0.00000000000000E+00   0.00000000000000E+00
      0.00000000000000E+00   0.00000000000000E+00  -5.91086813329494E-16  -1.95838311193174E-16  -7.86925124522668E-16
     -1.12091984164655E-16
      5.41185742935784E-01
      5.41185742935784E-01   5.41185742935784E-01   0.00000000000000E+00   0.00000000000000E+00   8.05412352577592E-16
      8.30908381310200E-21   8.05420661661405E-16   1.12638236982076E-16   0.00000000000000E+00   0.00000000000000E+00
      0.00000000000000E+00   0.00000000000000E+00  -6.04465348316310E-16  -2.00955313345097E-16  -8.05420661661407E-16
     -1.12638236982076E-16
      5.58323827507288E-01
      5.58323827507288E-01   5.58323827507288E-01   0.00000000000000E+00   0.00000000000000E+00   8.21996971369387E-16
      8.30324209176034E-21   8.22005274611479E-16   1.13116567370999E-16   0.00000000000000E+00   0.00000000000000E+00
      0.00000000000000E+00   0.00000000000000E+00  -6.16623208203499E-16  -2.05382066407979E-16  -8.22005274611478E-16
     -1.13116567370999E-16
      5.73633849724497E-01
      5.73633849724497E-01   5.73633849724497E-01   0.00000000000000E+00   0.00000000000000E+00   8.36888809182580E-16
      1.41037060723910E-20   8.36902912888652E-16   1.13542026733605E-16   0.00000000000000E+00   0.00000000000000E+00
      0.00000000000000E+00   0.00000000000000E+00  -6.27641427535475E-16  -2.09261485353177E-16  -8.36902912888653E-16
     -1.13542026733604E-16
      5.87719070164330E-01
      5.87719070164330E-01   5.87719070164330E-01   0.00000000000000E+00   0.00000000000000E+00   8.50968723042737E-16
      7.93843595429497E-21   8.50976661478691E-16   1.13931929473511E-16   0.00000000000000E+00   0.00000000000000E+00
      0.00000000000000E+00   0.00000000000000E+00  -6.38229409558978E-16  -2.12747251919713E-16  -8.50976661478691E-16
     -1.13931929473511E-16
      6.00677472968976E-01
      6.00677472968976E-01   6.00677472968976E-01   0.00000000000000E+00   0.00000000000000E+00   8.64074328867840E-16
      8.31321881669578E-21   8.64082642086656E-16   1.14289369747794E-16   0.00000000000000E+00   0.00000000000000E+00
      0.00000000000000E+00   0.00000000000000E+00  -6.48176868776023E-16  -2.15905773310631E-16  -8.64082642086654E-16
     -1.14289369747794E-16
      6.12771982253312E-01
      6.12771982253312E-01   6.12771982253312E-01   0.00000000000000E+00   0.00000000000000E+00   8.76299418618822E-16
      8.32215595490752E-21   8.76307740774777E-16   1.14621895162475E-16   0.00000000000000E+00   0.00000000000000E+00
      0.00000000000000E+00   0.00000000000000E+00  -6.57490242159000E-16  -2.18817498615777E-16  -8.76307740774777E-16
     -1.14621895162475E-16
      6.24060190918693E-01
      6.24060190918693E-01   6.24060190918693E-01   0.00000000000000E+00   0.00000000000000E+00   8.88021188462307E-16
      8.32012024654243E-21   8.88029508582553E-16   1.14931316861103E-16   0.00000000000000E+00   0.00000000000000E+00
      0.00000000000000E+00   0.00000000000000E+00  -6.66513888525315E-16  -2.21515620057238E-16  -8.88029508582553E-16
     -1.14931316861103E-16
      6.34595852339715E-01
      6.34595852339715E-01   6.34595852339715E-01   0.00000000000000E+00   0.00000000000000E+00   8.99148185144834E-16
      8.27472035470531E-21   8.99156459865189E-16   1.15219303905557E-16   0.00000000000000E+00   0.00000000000000E+00
      0.00000000000000E+00   0.00000000000000E+00  -6.75129656030716E-16  -2.24026803834471E-16  -8.99156459865187E-16
     -1.15219303905556E-16
      6.54543371296850E-01
      6.54543371296850E-01   6.54543371296850E-01   0.00000000000000E+00   0.00000000000000E+00   9.20289680401037E-16
      8.32090174621769E-21   9.20298001302783E-16   1.15762453059497E-16   0.00000000000000E+00   0.00000000000000E+00
      0.00000000000000E+00   0.00000000000000E+00  -6.91508375386436E-16  -2.28789625916346E-16  -9.20298001302782E-16
     -1.15762453059497E-16
      6.70501386462557E-01
      6.70501386462557E-01   6.70501386462557E-01   0.00000000000000E+00   0.00000000000000E+00   9.37777882612877E-16
      8.18868949756134E-21   9.37786071302374E-16   1.16195015227218E-16   0.00000000000000E+00   0.00000000000000E+00
      0.00000000000000E+00   0.00000000000000E+00  -7.05163315799661E-16  -2.32622755502714E-16  -9.37786071302375E-16
     -1.16195015227218E-16
      6.84969986879466E-01
      6.84969986879466E-01   6.84969986879466E-01   0.00000000000000E+00   0.00000000000000E+00   9.54191927213464E-16
      8.31778029926652E-21   9.54200244993764E-16   1.16585724011881E-16   0.00000000000000E+00   0.00000000000000E+00
      0.00000000000000E+00   0.00000000000000E+00  -7.18085230637387E-16  -2.36115014356379E-16  -9.54200244993766E-16
     -1.16585724011881E-16
      6.98281099263022E-01
      6.98281099263022E-01   6.98281099263022E-01   0.00000000000000E+00   0.00000000000000E+00   9.69359551943669E-16
      8.25447573516801E-21   9.69367806419404E-16   1.16943948634915E-16   0.00000000000000E+00   0.00000000000000E+00
      0.00000000000000E+00   0.00000000000000E+00  -7.30036660260537E-16  -2.39331146158866E-16  -9.69367806419403E-16
     -1.16943948634915E-16
      7.10704804154340E-01
      7.10704804154340E-01   7.10704804154340E-01   0.00000000000000E+00   0.00000000000000E+00   9.83845763402185E-16
      8.32271839261357E-21   9.83854086120578E-16   1.17277243288528E-16   0.00000000000000E+00   0.00000000000000E+00
      0.00000000000000E+00   0.00000000000000E+00  -7.41530855890689E-16  -2.42323230229889E-16  -9.83854086120577E-16
     -1.17277243288528E-16
      7.22300262052904E-01
      7.22300262052904E-01   7.22300262052904E-01   0.00000000000000E+00   0.00000000000000E+00   9.96600596962420E-16
      7.52394311038753E-21   9.96608120905531E-16   1.17587415501175E-16   0.00000000000000E+00   0.00000000000000E+00
      0.00000000000000E+00   0.00000000000000E+00  -7.51512726063596E-16  -2.45095394841933E-16  -9.96608120905529E-16
     -1.17587415501175E-16
      7.33277295530212E-01
      7.33277295530212E-01   7.33277295530212E-01   0.00000000000000E+00   0.00000000000000E+00   1.01072173309732E-15
      8.30995308277719E-21   1.01073004305041E-15   1.17880250652363E-16   0.00000000000000E+00   0.00000000000000E+00
      0.00000000000000E+00   0.00000000000000E+00  -7.63034185821722E-16  -2.47695857228684E-16  -1.01073004305041E-15
     -1.17880250652363E-16
      7.43668887222063E-01
      7.43668887222063E-01   7.43668887222063E-01   0.00000000000000E+00   0.00000000000000E+00   1.02332848082711E-15
      8.32342365560996E-21   1.02333680425077E-15   1.18156763121942E-16   0.00000000000000E+00   0.00000000000000E+00
      0.00000000000000E+00   0.00000000000000E+00  -7.73207229720216E-16  -2.50129574530554E-16  -1.02333680425077E-15
     -1.18156763121942E-16
      7.63343634158634E-01
      7.63343634158634E-01   7.63343634158634E-01   0.00000000000000E+00   0.00000000000000E+00   1.04789510774075E-15
      8.32350526329380E-21   1.04790343124601E-15   1.18678439713328E-16   0.00000000000000E+00   0.00000000000000E+00
      0.00000000000000E+00   0.00000000000000E+00  -7.93242858891950E-16  -2.54660572354061E-16  -1.04790343124601E-15
     -1.18678439713328E-16
      7.78034111871274E-01
      7.78034111871274E-01   7.78034111871274E-01   0.00000000000000E+00   0.00000000000000E+00   1.06619550461392E-15
      8.23021352636750E-21   1.06620373482745E-15   1.19066398409712E-16   0.00000000000000E+00   0.00000000000000E+00
      0.00000000000000E+00   0.00000000000000E+00  -8.08218260011368E-16  -2.57985474816082E-16  -1.06620373482745E-15
     -1.19066398409712E-16
      7.91549351366903E-01
      7.91549351366903E-01   7.91549351366903E-01   0.00000000000000E+00   0.00000000000000E+00   1.08377026791876E-15
      8.32147564952331E-21   1.08377858939441E-15   1.19422160429763E-16   0.00000000000000E+00   0.00000000000000E+00
      0.00000000000000E+00   0.00000000000000E+00  -8.22764543254445E-16  -2.61014046139966E-16  -1.08377858939441E-15
     -1.19422160429763E-16
      8.04163574896156E-01
      8.04163574896156E-01   8.04163574896156E-01   0.00000000000000E+00   0.00000000000000E+00   1.10037427917996E-15
      8.32108684368325E-21   1.10038260026681E-15   1.19753215169354E-16   0.00000000000000E+00   0.00000000000000E+00
      0.00000000000000E+00   0.00000000000000E+00  -8.36555633311117E-16  -2.63826966955690E-16  -1.10038260026681E-15
     -1.19753215169354E-16
      8.15936850190126E-01
      8.15936850190126E-01   8.15936850190126E-01   0.00000000000000E+00   0.00000000000000E+00   1.11624278218637E-15
      8.32301776685215E-21   1.11625110520414E-15   1.20061347993425E-16   0.00000000000000E+00   0.00000000000000E+00
      0.00000000000000E+00   0.00000000000000E+00  -8.49800773387154E-16  -2.66450331816983E-16  -1.11625110520414E-15
     -1.20061347993425E-16
      8.26925240464498E-01
      8.26925240464498E-01   8.26925240464498E-01   0.00000000000000E+00   0.00000000000000E+00   1.13120071104706E-15
      8.36875913479690E-21   1.13120907980619E-15   1.20348205457356E-16   0.00000000000000E+00   0.00000000000000E+00
      0.00000000000000E+00   0.00000000000000E+00  -8.62305839175488E-16  -2.68903240630700E-16  -1.13120907980619E-15
     -1.20348205457355E-16
      8.37327583257570E-01
      8.37327583257570E-01   8.37327583257570E-01   0.00000000000000E+00   0.00000000000000E+00   1.14559738426973E-15
      8.32345808608786E-21   1.14560570772782E-15   1.20619118840379E-16   0.00000000000000E+00   0.00000000000000E+00
      0.00000000000000E+00   0.00000000000000E+00  -8.74373757011831E-16  -2.71231950715989E-16  -1.14560570772782E-15
     -1.20619118840380E-16
      8.47175134435011E-01
      8.47175134435011E-01   8.47175134435011E-01   0.00000000000000E+00   0.00000000000000E+00   1.15954504914416E-15
      8.32351401845406E-21   1.15955337265817E-15   1.20875011602963E-16   0.00000000000000E+00   0.00000000000000E+00
      0.00000000000000E+00   0.00000000000000E+00  -8.86110716674644E-16  -2.73442655983530E-16  -1.15955337265817E-15
     -1.20875011602963E-16
      8.65819831330967E-01
      8.65819831330967E-01   8.65819831330967E-01   0.00000000000000E+00   0.00000000000000E+00   1.18637278502501E-15
      8.30990314371480E-21   1.18638109492816E-15   1.21357998834434E-16   0.00000000000000E+00   0.00000000000000E+00
      0.00000000000000E+00   0.00000000000000E+00  -9.08744752477056E-16  -2.77636342451097E-16  -1.18638109492815E-15
     -1.21357998834435E-16
      8.82227164599408E-01
      8.82227164599408E-01   8.82227164599408E-01   0.00000000000000E+00   0.00000000000000E+00   1.21009011888033E-15
      1.57479511276202E-20   1.21010586683146E-15   1.21781426148203E-16   0.00000000000000E+00   0.00000000000000E+00
      0.00000000000000E+00   0.00000000000000E+00  -9.28783225884117E-16  -2.81322640947342E-16  -1.21010586683146E-15
     -1.21781426148203E-16
      8.97103146762795E-01
      8.97103146762795E-01   8.97103146762795E-01   0.00000000000000E+00   0.00000000000000E+00   1.23309272686995E-15
      8.23276785660926E-21   1.23310095963780E-15   1.22164061091386E-16   0.00000000000000E+00   0.00000000000000E+00
      0.00000000000000E+00   0.00000000000000E+00  -9.48483565612734E-16  -2.84617394025069E-16  -1.23310095963780E-15
     -1.22164061091387E-16
      9.10789050353111E-01
      9.10789050353111E-01   9.10789050353111E-01   0.00000000000000E+00   0.00000000000000E+00   1.25339180225854E-15
      8.02528220004398E-21   1.25339982754074E-15   1.22515034240716E-16   0.00000000000000E+00   0.00000000000000E+00
      0.00000000000000E+00   0.00000000000000E+00  -9.65790493724511E-16  -2.87609333816225E-16  -1.25339982754074E-15
     -1.22515034240716E-16
      9.23562560370739E-01
      9.23562560370739E-01   9.23562560370739E-01   0.00000000000000E+00   0.00000000000000E+00   1.27437783681957E-15
      8.31402774669982E-21   1.27438615084732E-15   1.22841714760052E-16   0.00000000000000E+00   0.00000000000000E+00
      0.00000000000000E+00   0.00000000000000E+00  -9.84034538827485E-16  -2.90351612019833E-16  -1.27438615084732E-15
     -1.22841714760052E-16
      9.35484503053858E-01
      9.35484503053858E-01   9.35484503053858E-01   0.00000000000000E+00   0.00000000000000E+00   1.29347604864113E-15
      8.32346492560779E-21   1.29348437210605E-15   1.23145849096323E-16   0.00000000000000E+00   0.00000000000000E+00
      0.00000000000000E+00   0.00000000000000E+00  -1.00062231903794E-15  -2.92862053068112E-16  -1.29348437210605E-15
     -1.23145849096323E-16
      9.46611649558103E-01
      9.46611649558103E-01   9.46611649558103E-01   0.00000000000000E+00   0.00000000000000E+00   1.31152480806171E-15
      8.20096559978275E-21   1.31153300902731E-15   1.23429048790159E-16   0.00000000000000E+00   0.00000000000000E+00
      0.00000000000000E+00   0.00000000000000E+00  -1.01637036326347E-15  -2.95162645763839E-16  -1.31153300902731E-15
     -1.23429048790159E-16
      9.57145348248788E-01