DF-ISE text

Info {
  version   = 1.0
  type      = xyplot
  datasets  = [
    "time"
    "substrate OuterVoltage" "substrate InnerVoltage" "substrate QuasiFermiPotential" "substrate DisplacementCurrent" "substrate eCurrent"
    "substrate hCurrent" "substrate TotalCurrent" "substrate Charge" "source OuterVoltage" "source InnerVoltage"
    "source QuasiFermiPotential" "source DisplacementCurrent" "source eCurrent" "source hCurrent" "source TotalCurrent"
    "source Charge" "drain OuterVoltage" "drain InnerVoltage" "drain QuasiFermiPotential" "drain DisplacementCurrent"
    "drain eCurrent" "drain hCurrent" "drain TotalCurrent" "drain Charge" "gate OuterVoltage"
    "gate InnerVoltage" "gate QuasiFermiPotential" "gate DisplacementCurrent" "gate eCurrent" "gate hCurrent"
    "gate TotalCurrent" "gate Charge" ]
  functions = [
    Time
    OuterVoltage InnerVoltage QuasiFermiPotential DisplacementCurrent eCurrent
    hCurrent TotalCurrent Charge OuterVoltage InnerVoltage
    QuasiFermiPotential DisplacementCurrent eCurrent hCurrent TotalCurrent
    Charge OuterVoltage InnerVoltage QuasiFermiPotential DisplacementCurrent
    eCurrent hCurrent TotalCurrent Charge OuterVoltage
    InnerVoltage QuasiFermiPotential DisplacementCurrent eCurrent hCurrent
    TotalCurrent Charge ]
}

Data {
      0.00000000000000E+00
      0.00000000000000E+00   0.00000000000000E+00   0.00000000000000E+00   0.00000000000000E+00   1.00221059543413E-34
      9.70037936190397E-17   9.70037936190397E-17   3.68581641957949E-17   0.00000000000000E+00   0.00000000000000E+00
      0.00000000000000E+00   0.00000000000000E+00   2.69905821855711E-34   8.60644693881940E-17   8.60644693881940E-17
     -1.99382648046826E-15   0.00000000000000E+00   0.00000000000000E+00   0.00000000000000E+00   0.00000000000000E+00
     -2.42498719227306E-34  -1.83068263007234E-16  -1.83068263007234E-16  -1.71154134403824E-15   3.00000000000000E+00
      3.00000000000000E+00   0.00000000000000E+00   0.00000000000000E+00   0.00000000000000E+00   0.00000000000000E+00
      0.00000000000000E+00   3.66850966031071E-15
      1.00000000000000E-02
      0.00000000000000E+00   0.00000000000000E+00   0.00000000000000E+00   0.00000000000000E+00  -2.57003405954843E-20
     -4.21465528131285E-05  -4.21465528131285E-05   3.69033947522039E-17   0.00000000000000E+00   0.00000000000000E+00
      0.00000000000000E+00   0.00000000000000E+00  -2.16269860645471E-21  -1.07104780633113E-03  -1.07104780633113E-03
     -1.98693797345375E-15   3.00000000000000E-02   3.00000000000000E-02   0.00000000000000E+00   0.00000000000000E+00
      2.50396478411419E-21   1.11319435914426E-03   1.11319435914426E-03  -1.70321793682132E-15   3.00000000000000E+00
      3.00000000000000E+00   0.00000000000000E+00   0.00000000000000E+00   0.00000000000000E+00   0.00000000000000E+00
      0.00000000000000E+00   3.65325251552287E-15
      2.23333333333333E-02
      0.00000000000000E+00   0.00000000000000E+00   0.00000000000000E+00   0.00000000000000E+00  -8.01541677688032E-20
     -9.40707401819135E-05  -9.40707401819136E-05   3.69592304706492E-17   0.00000000000000E+00   0.00000000000000E+00
      0.00000000000000E+00   0.00000000000000E+00  -4.87971408132099E-21  -2.39160885268087E-03  -2.39160885268087E-03
     -1.97844351568880E-15   6.70000000000000E-02   6.70000000000000E-02   0.00000000000000E+00   0.00000000000000E+00
      6.06874283075412E-21   2.48567959286278E-03   2.48567959286278E-03  -1.69295416806118E-15   3.00000000000000E+00
      3.00000000000000E+00   0.00000000000000E+00   0.00000000000000E+00   0.00000000000000E+00   0.00000000000000E+00
      0.00000000000000E+00   3.63443845327933E-15
      4.08333333333333E-02
      0.00000000000000E+00   0.00000000000000E+00   0.00000000000000E+00   0.00000000000000E+00  -2.33258361914970E-19
     -1.71807594666597E-04  -1.71807594666597E-04   3.70431076903780E-17   0.00000000000000E+00   0.00000000000000E+00
      0.00000000000000E+00   0.00000000000000E+00  -9.07330387890650E-21  -4.37146075864857E-03  -4.37146075864857E-03
     -1.96570466237962E-15   1.22500000000000E-01   1.22500000000000E-01   0.00000000000000E+00   0.00000000000000E+00
      1.36201094726371E-20   4.54326835331516E-03   4.54326835331516E-03  -1.67756211453154E-15   3.00000000000000E+00
      3.00000000000000E+00   0.00000000000000E+00   0.00000000000000E+00   0.00000000000000E+00   0.00000000000000E+00
      0.00000000000000E+00   3.60622366922078E-15
      6.58333333333333E-02
      0.00000000000000E+00   0.00000000000000E+00   0.00000000000000E+00   0.00000000000000E+00  -5.62333894825811E-19
     -2.76525791285860E-04  -2.76525791285861E-04   3.71567158089776E-17   0.00000000000000E+00   0.00000000000000E+00
      0.00000000000000E+00   0.00000000000000E+00  -1.49509955186503E-20  -7.04480757826981E-03  -7.04480757826981E-03
     -1.94849539730535E-15   1.97500000000000E-01   1.97500000000000E-01   0.00000000000000E+00   0.00000000000000E+00
      3.18336779018569E-20   7.32133336955567E-03   7.32133336955567E-03  -1.65676881600001E-15   3.00000000000000E+00
      3.00000000000000E+00   0.00000000000000E+00   0.00000000000000E+00   0.00000000000000E+00   0.00000000000000E+00
      0.00000000000000E+00   3.56810749749637E-15
      9.08333333333333E-02
      0.00000000000000E+00   0.00000000000000E+00   0.00000000000000E+00   0.00000000000000E+00  -8.93939528882539E-19
     -3.80818628098066E-04  -3.80818628098067E-04   3.72706467222682E-17   0.00000000000000E+00   0.00000000000000E+00
      0.00000000000000E+00   0.00000000000000E+00  -2.09461782396075E-20  -9.71547577272877E-03  -9.71547577272877E-03
     -1.93129233489561E-15   2.72500000000000E-01   2.72500000000000E-01   0.00000000000000E+00   0.00000000000000E+00
      5.97737970799323E-20   1.00962944008268E-02   1.00962944008268E-02  -1.63598321113110E-15   3.00000000000000E+00
      3.00000000000000E+00   0.00000000000000E+00   0.00000000000000E+00   0.00000000000000E+00   0.00000000000000E+00
      0.00000000000000E+00   3.53000489930444E-15
      1.15833333333333E-01
      0.00000000000000E+00   0.00000000000000E+00   0.00000000000000E+00   0.00000000000000E+00  -1.17473409502622E-18
     -4.84650758298196E-04  -4.84650758298197E-04   3.73849190831743E-17   0.00000000000000E+00   0.00000000000000E+00
      0.00000000000000E+00   0.00000000000000E+00  -2.69847295980947E-20  -1.23832770012490E-02  -1.23832770012490E-02
     -1.91409545989634E-15   3.47500000000000E-01   3.47500000000000E-01   0.00000000000000E+00   0.00000000000000E+00
      9.58544641720977E-20   1.28679277595472E-02   1.28679277595472E-02  -1.61520521299053E-15   3.00000000000000E+00
      3.00000000000000E+00   0.00000000000000E+00   0.00000000000000E+00   0.00000000000000E+00   0.00000000000000E+00
      0.00000000000000E+00   3.49191575380370E-15
      1.40833333333333E-01
      0.00000000000000E+00   0.00000000000000E+00   0.00000000000000E+00   0.00000000000000E+00  -1.43001986176446E-18
     -5.87994680912668E-04  -5.87994680912669E-04   3.74995475348322E-17   0.00000000000000E+00   0.00000000000000E+00
      0.00000000000000E+00   0.00000000000000E+00  -3.30610434259992E-20  -1.50480618975987E-02  -1.50480618975987E-02
     -1.89690474743384E-15   4.22500000000000E-01   4.22500000000000E-01   0.00000000000000E+00   0.00000000000000E+00
      1.40439448242499E-19   1.56360565785114E-02   1.56360565785114E-02  -1.59443473968948E-15   3.00000000000000E+00
      3.00000000000000E+00   0.00000000000000E+00   0.00000000000000E+00   0.00000000000000E+00   0.00000000000000E+00
      0.00000000000000E+00   3.45383993958850E-15
      1.65833333333333E-01
      0.00000000000000E+00   0.00000000000000E+00   0.00000000000000E+00   0.00000000000000E+00  -1.67566304363441E-18
     -6.90827909787911E-04  -6.90827909787913E-04   3.76145441682636E-17   0.00000000000000E+00   0.00000000000000E+00
      0.00000000000000E+00   0.00000000000000E+00  -3.91686239822655E-20  -1.77097061812169E-02  -1.77097061812169E-02
     -1.87972016157842E-15   4.97500000000000E-01   4.97500000000000E-01   0.00000000000000E+00   0.00000000000000E+00
      1.94120937250749E-19   1.84005340910049E-02   1.84005340910049E-02  -1.57367170520016E-15   3.00000000000000E+00
      3.00000000000000E+00   0.00000000000000E+00   0.00000000000000E+00   0.00000000000000E+00   0.00000000000000E+00
      0.00000000000000E+00   3.41577732261031E-15
      1.90833333333333E-01
      0.00000000000000E+00   0.00000000000000E+00   0.00000000000000E+00   0.00000000000000E+00  -1.91640421659556E-18
     -7.93131504774927E-04  -7.93131504774929E-04   3.77299193094999E-17   0.00000000000000E+00   0.00000000000000E+00
      0.00000000000000E+00   0.00000000000000E+00  -4.52960206904793E-20  -2.03681031639659E-02  -2.03681031639659E-02
     -1.86254165435116E-15   5.72500000000000E-01   5.72500000000000E-01   0.00000000000000E+00   0.00000000000000E+00
      2.57002648041235E-19   2.11612346687408E-02   2.11612346687408E-02  -1.55291601604777E-15   3.00000000000000E+00
      3.00000000000000E+00   0.00000000000000E+00   0.00000000000000E+00   0.00000000000000E+00   0.00000000000000E+00
      0.00000000000000E+00   3.37772775108943E-15
      2.15833333333333E-01
      0.00000000000000E+00   0.00000000000000E+00   0.00000000000000E+00   0.00000000000000E+00  -2.15342131924112E-18
     -8.94889200614329E-04  -8.94889200614331E-04   3.78456820830857E-17   0.00000000000000E+00   0.00000000000000E+00
      0.00000000000000E+00   0.00000000000000E+00  -5.14325789278382E-20  -2.30231591684640E-02  -2.30231591684640E-02
     -1.84536916868702E-15   6.47500000000000E-01   6.47500000000000E-01   0.00000000000000E+00   0.00000000000000E+00
      3.28827559082403E-19   2.39180483690783E-02   2.39180483690783E-02  -1.53216757207106E-15   3.00000000000000E+00
      3.00000000000000E+00   0.00000000000000E+00   0.00000000000000E+00   0.00000000000000E+00   0.00000000000000E+00
      0.00000000000000E+00   3.33969105867500E-15
      2.40833333333333E-01
      0.00000000000000E+00   0.00000000000000E+00   0.00000000000000E+00   0.00000000000000E+00  -2.38701726395609E-18
     -9.96086847597635E-04  -9.96086847597637E-04   3.79618407437464E-17   0.00000000000000E+00   0.00000000000000E+00
      0.00000000000000E+00   0.00000000000000E+00  -5.75703276536574E-20  -2.56747906276413E-02  -2.56747906276413E-02
     -1.82820264071143E-15   7.22500000000000E-01   7.22500000000000E-01   0.00000000000000E+00   0.00000000000000E+00
      4.09135462256785E-19   2.66708774752390E-02   2.66708774752390E-02  -1.51142626450645E-15   3.00000000000000E+00
      3.00000000000000E+00   0.00000000000000E+00   0.00000000000000E+00   0.00000000000000E+00   0.00000000000000E+00
      0.00000000000000E+00   3.30166706447413E-15
      2.65833333333333E-01
      0.00000000000000E+00   0.00000000000000E+00   0.00000000000000E+00   0.00000000000000E+00  -2.61729294689659E-18
     -1.09671203237721E-03  -1.09671203237722E-03   3.80784026851558E-17   0.00000000000000E+00   0.00000000000000E+00
      0.00000000000000E+00   0.00000000000000E+00  -6.37038900551227E-20  -2.83229227034115E-02  -2.83229227034115E-02
     -1.81104198976449E-15   7.97500000000000E-01   7.97500000000000E-01   0.00000000000000E+00   0.00000000000000E+00
      4.97358105346150E-19   2.94196347357887E-02   2.94196347357887E-02  -1.49069198049856E-15   3.00000000000000E+00
      3.00000000000000E+00   0.00000000000000E+00   0.00000000000000E+00   0.00000000000000E+00   0.00000000000000E+00
      0.00000000000000E+00   3.26365556757790E-15
      2.90833333333333E-01
      0.00000000000000E+00   0.00000000000000E+00   0.00000000000000E+00   0.00000000000000E+00  -2.84430103229694E-18
     -1.19675380288280E-03  -1.19675380288280E-03   3.81953747886801E-17   0.00000000000000E+00   0.00000000000000E+00
      0.00000000000000E+00   0.00000000000000E+00  -6.98298773454531E-20  -3.09674872705545E-02  -3.09674872705545E-02
     -1.79388713051186E-15   8.72500000000000E-01   8.72500000000000E-01   0.00000000000000E+00   0.00000000000000E+00
      5.92876696823936E-19   3.21642410734373E-02   3.21642410734373E-02  -1.46996459843735E-15   3.00000000000000E+00
      3.00000000000000E+00   0.00000000000000E+00   0.00000000000000E+00   0.00000000000000E+00   0.00000000000000E+00
      0.00000000000000E+00   3.22565635416053E-15
      3.15833333333333E-01
      0.00000000000000E+00   0.00000000000000E+00   0.00000000000000E+00   0.00000000000000E+00  -3.06808217402373E-18
     -1.29620246788767E-03  -1.29620246788767E-03   3.83127635099255E-17   0.00000000000000E+00   0.00000000000000E+00
      0.00000000000000E+00   0.00000000000000E+00  -7.59462819974139E-20  -3.36084220470130E-02  -3.36084220470130E-02
     -1.77673797126296E-15   9.47500000000000E-01   9.47500000000000E-01   0.00000000000000E+00   0.00000000000000E+00
      6.95058487968166E-19   3.49046245149007E-02   3.49046245149007E-02  -1.44924399005214E-15   3.00000000000000E+00
      3.00000000000000E+00   0.00000000000000E+00   0.00000000000000E+00   0.00000000000000E+00   0.00000000000000E+00
      0.00000000000000E+00   3.18766919780518E-15
      3.40833333333333E-01
      0.00000000000000E+00   0.00000000000000E+00   0.00000000000000E+00   0.00000000000000E+00  -3.28867448283452E-18
     -1.39504944537245E-03  -1.39504944537245E-03   3.84305748276672E-17   0.00000000000000E+00   0.00000000000000E+00
      0.00000000000000E+00   0.00000000000000E+00  -8.20520013229209E-20  -3.62456700105183E-02  -3.62456700105183E-02
     -1.75959441112357E-15   1.02250000000000E+00   1.02250000000000E+00   0.00000000000000E+00   0.00000000000000E+00
      8.03280125590228E-19   3.76407194558907E-02   3.76407194558907E-02  -1.42853002086073E-15   3.00000000000000E+00
      3.00000000000000E+00   0.00000000000000E+00   0.00000000000000E+00   0.00000000000000E+00   0.00000000000000E+00
      0.00000000000000E+00   3.14969385715663E-15
      3.65833333333333E-01
      0.00000000000000E+00   0.00000000000000E+00   0.00000000000000E+00   0.00000000000000E+00  -3.50611624503330E-18
     -1.49328714121295E-03  -1.49328714121296E-03   3.85488144232816E-17   0.00000000000000E+00   0.00000000000000E+00
      0.00000000000000E+00   0.00000000000000E+00  -8.81464986178537E-20  -3.88791784153462E-02  -3.88791784153462E-02
     -1.74245634399846E-15   1.09750000000000E+00   1.09750000000000E+00   0.00000000000000E+00   0.00000000000000E+00
      9.16942039491726E-19   4.03724655565592E-02   4.03724655565592E-02  -1.40782255057303E-15   3.00000000000000E+00
      3.00000000000000E+00   0.00000000000000E+00   0.00000000000000E+00   0.00000000000000E+00   0.00000000000000E+00
      0.00000000000000E+00   3.11173008014820E-15
      3.90833333333333E-01
      0.00000000000000E+00   0.00000000000000E+00   0.00000000000000E+00   0.00000000000000E+00  -3.72044668163203E-18
     -1.59090885446114E-03  -1.59090885446114E-03   3.86674876663429E-17   0.00000000000000E+00   0.00000000000000E+00
      0.00000000000000E+00   0.00000000000000E+00  -9.42295776304835E-20  -4.15088982989432E-02  -4.15088982989432E-02
     -1.72532365745211E-15   1.17250000000000E+00   1.17250000000000E+00   0.00000000000000E+00   0.00000000000000E+00
      1.03547674463917E-18   4.30998071534043E-02   4.30998071534043E-02  -1.38712143255269E-15   3.00000000000000E+00
      3.00000000000000E+00   0.00000000000000E+00   0.00000000000000E+00   0.00000000000000E+00   0.00000000000000E+00
      0.00000000000000E+00   3.07377760233846E-15
      4.15833333333333E-01
      0.00000000000000E+00   0.00000000000000E+00   0.00000000000000E+00   0.00000000000000E+00  -3.93170606015723E-18
     -1.68790869713564E-03  -1.68790869713564E-03   3.87865996870064E-17   0.00000000000000E+00   0.00000000000000E+00
      0.00000000000000E+00   0.00000000000000E+00  -1.00301238704108E-19  -4.41347842388115E-02  -4.41347842388115E-02
     -1.70819623524746E-15   1.24750000000000E+00   1.24750000000000E+00   0.00000000000000E+00   0.00000000000000E+00
      1.15835307655439E-18   4.58226929359472E-02   4.58226929359472E-02  -1.36642651588580E-15   3.00000000000000E+00
      3.00000000000000E+00   0.00000000000000E+00   0.00000000000000E+00   0.00000000000000E+00   0.00000000000000E+00
      0.00000000000000E+00   3.03583615144625E-15
      4.40833333333333E-01
      0.00000000000000E+00   0.00000000000000E+00   0.00000000000000E+00   0.00000000000000E+00  -4.13993559378001E-18
     -1.78428152728549E-03  -1.78428152728549E-03   3.89061554648187E-17   0.00000000000000E+00   0.00000000000000E+00
      0.00000000000000E+00   0.00000000000000E+00  -1.06361588687165E-19  -4.67567936302884E-02  -4.67567936302884E-02
     -1.69107395906161E-15   1.32250000000000E+00   1.32250000000000E+00   0.00000000000000E+00   0.00000000000000E+00
      1.28507775777251E-18   4.85410751575739E-02   4.85410751575739E-02  -1.34573764744796E-15   3.00000000000000E+00
      3.00000000000000E+00   0.00000000000000E+00   0.00000000000000E+00   0.00000000000000E+00   0.00000000000000E+00
      0.00000000000000E+00   2.99790545104474E-15
      4.65833333333333E-01
      0.00000000000000E+00   0.00000000000000E+00   0.00000000000000E+00   0.00000000000000E+00  -4.34517728764178E-18
     -1.88002289600102E-03  -1.88002289600103E-03   3.90261596578834E-17   0.00000000000000E+00   0.00000000000000E+00
      0.00000000000000E+00   0.00000000000000E+00  -1.12410788757251E-19  -4.93748870042725E-02  -4.93748870042725E-02
     -1.67395670408861E-15   1.39750000000000E+00   1.39750000000000E+00   0.00000000000000E+00   0.00000000000000E+00
      1.41519529533025E-18   5.12549099002735E-02   5.12549099002735E-02  -1.32505466830517E-15   3.00000000000000E+00
      3.00000000000000E+00   0.00000000000000E+00   0.00000000000000E+00   0.00000000000000E+00   0.00000000000000E+00
      0.00000000000000E+00   2.95998521273590E-15
      4.90833333333334E-01
      0.00000000000000E+00   0.00000000000000E+00   0.00000000000000E+00   0.00000000000000E+00  -4.54747376511431E-18
     -1.97512899596440E-03  -1.97512899596441E-03   3.91466167269956E-17   0.00000000000000E+00   0.00000000000000E+00
      0.00000000000000E+00   0.00000000000000E+00  -1.18449022039701E-19  -5.19890272915392E-02  -5.19890272915392E-02
     -1.65684434284293E-15   1.47250000000000E+00   1.47250000000000E+00   0.00000000000000E+00   0.00000000000000E+00
      1.54828681333303E-18   5.39641562875036E-02   5.39641562875036E-02  -1.30437741516333E-15   3.00000000000000E+00
      3.00000000000000E+00   0.00000000000000E+00   0.00000000000000E+00   0.00000000000000E+00   0.00000000000000E+00
      0.00000000000000E+00   2.92207514127925E-15
      5.15833333333333E-01
      0.00000000000000E+00   0.00000000000000E+00   0.00000000000000E+00   0.00000000000000E+00  -4.74686810472636E-18
     -2.06959661508111E-03  -2.06959661508112E-03   3.92675310204084E-17   0.00000000000000E+00   0.00000000000000E+00
      0.00000000000000E+00   0.00000000000000E+00  -1.24476476155257E-19  -5.45991796797382E-02  -5.45991796797382E-02
     -1.63973674761268E-15   1.54750000000000E+00   1.54750000000000E+00   0.00000000000000E+00   0.00000000000000E+00
      1.68396828623681E-18   5.66687762948193E-02   5.66687762948193E-02  -1.28370572460950E-15   3.00000000000000E+00
      3.00000000000000E+00   0.00000000000000E+00   0.00000000000000E+00   0.00000000000000E+00   0.00000000000000E+00
      0.00000000000000E+00   2.88417494120178E-15
      5.40833333333333E-01
      0.00000000000000E+00   0.00000000000000E+00   0.00000000000000E+00   0.00000000000000E+00  -4.94340370203408E-18
     -2.16342309835435E-03  -2.16342309835436E-03   3.93889067142104E-17   0.00000000000000E+00   0.00000000000000E+00
      0.00000000000000E+00   0.00000000000000E+00  -1.30493333715446E-19  -5.72053114109462E-02  -5.72053114109462E-02
     -1.62263378898584E-15   1.62250000000000E+00   1.62250000000000E+00   0.00000000000000E+00   0.00000000000000E+00
      1.82188844594188E-18   5.93687345093006E-02   5.93687345093006E-02  -1.26303943153460E-15   3.00000000000000E+00
      3.00000000000000E+00   0.00000000000000E+00   0.00000000000000E+00   0.00000000000000E+00   0.00000000000000E+00
      0.00000000000000E+00   2.84628431380622E-15
      5.65833333333334E-01
      0.00000000000000E+00   0.00000000000000E+00   0.00000000000000E+00   0.00000000000000E+00  -5.13712414470185E-18
     -2.25660631159569E-03  -2.25660631159570E-03   3.95107478665251E-17   0.00000000000000E+00   0.00000000000000E+00
      0.00000000000000E+00   0.00000000000000E+00  -1.36499767339977E-19  -5.98073914940444E-02  -5.98073914940444E-02
     -1.60553533714336E-15   1.69750000000000E+00   1.69750000000000E+00   0.00000000000000E+00   0.00000000000000E+00
      1.96172654240774E-18   6.20639978056401E-02   6.20639978056401E-02  -1.24237836890257E-15   3.00000000000000E+00
      3.00000000000000E+00   0.00000000000000E+00   0.00000000000000E+00   0.00000000000000E+00   0.00000000000000E+00
      0.00000000000000E+00   2.80840295817941E-15
      5.90833333333334E-01
      0.00000000000000E+00   0.00000000000000E+00   0.00000000000000E+00   0.00000000000000E+00  -5.32807309991147E-18
     -2.34914460646097E-03  -2.34914460646098E-03   3.96330583596737E-17   0.00000000000000E+00   0.00000000000000E+00
      0.00000000000000E+00   0.00000000000000E+00  -1.42495938903881E-19  -6.24053910852686E-02  -6.24053910852686E-02
     -1.58844126245085E-15   1.77250000000000E+00   1.77250000000000E+00   0.00000000000000E+00   0.00000000000000E+00
      2.10319009419519E-18   6.47545356917296E-02   6.47545356917296E-02  -1.22172237113719E-15   3.00000000000000E+00
      3.00000000000000E+00   0.00000000000000E+00   0.00000000000000E+00   0.00000000000000E+00   0.00000000000000E+00
      0.00000000000000E+00   2.77053057522837E-15
      6.15833333333334E-01
      0.00000000000000E+00   0.00000000000000E+00   0.00000000000000E+00   0.00000000000000E+00  -5.51629421997561E-18
     -2.44103679018503E-03  -2.44103679018503E-03   3.97558419288609E-17   0.00000000000000E+00   0.00000000000000E+00
      0.00000000000000E+00   0.00000000000000E+00  -1.48481997659347E-19  -6.49992827402702E-02  -6.49992827402702E-02
     -1.57135143478482E-15   1.84750000000000E+00   1.84750000000000E+00   0.00000000000000E+00   0.00000000000000E+00
      2.24601266316883E-18   6.74403195304553E-02   6.74403195304553E-02  -1.20107127215759E-15   3.00000000000000E+00
      3.00000000000000E+00   0.00000000000000E+00   0.00000000000000E+00   0.00000000000000E+00   0.00000000000000E+00
      0.00000000000000E+00   2.73266686501355E-15
      6.40833333333334E-01
      0.00000000000000E+00   0.00000000000000E+00   0.00000000000000E+00   0.00000000000000E+00  -5.70183105305851E-18
     -2.53228209405690E-03  -2.53228209405691E-03   3.98791022623911E-17   0.00000000000000E+00   0.00000000000000E+00
      0.00000000000000E+00   0.00000000000000E+00  -1.54458080445926E-19  -6.75890402348350E-02  -6.75890402348350E-02
     -1.55426572652526E-15   1.92250000000000E+00   1.92250000000000E+00   0.00000000000000E+00   0.00000000000000E+00
      2.38995173436471E-18   7.01213223288919E-02   7.01213223288919E-02  -1.18042490859398E-15   3.00000000000000E+00
      3.00000000000000E+00   0.00000000000000E+00   0.00000000000000E+00   0.00000000000000E+00   0.00000000000000E+00
      0.00000000000000E+00   2.69481153285685E-15
      6.65833333333334E-01
      0.00000000000000E+00   0.00000000000000E+00   0.00000000000000E+00   0.00000000000000E+00  -5.88472697550480E-18
     -2.62288014917015E-03  -2.62288014917016E-03   4.00028428597979E-17   0.00000000000000E+00   0.00000000000000E+00
      0.00000000000000E+00   0.00000000000000E+00  -1.60424313293660E-19  -7.01746388298293E-02  -7.01746388298293E-02
     -1.53718400990412E-15   1.99750000000000E+00   1.99750000000000E+00   0.00000000000000E+00   0.00000000000000E+00
      2.53478672776559E-18   7.27975189789995E-02   7.27975189789995E-02  -1.15978311666792E-15   3.00000000000000E+00
      3.00000000000000E+00   0.00000000000000E+00   0.00000000000000E+00   0.00000000000000E+00   0.00000000000000E+00
      0.00000000000000E+00   2.65696428371224E-15
      6.90833333333334E-01
      0.00000000000000E+00   0.00000000000000E+00   0.00000000000000E+00   0.00000000000000E+00  -6.06502512596704E-18
     -2.71283096031383E-03  -2.71283096031384E-03   4.01270670358823E-17   0.00000000000000E+00   0.00000000000000E+00
      0.00000000000000E+00   0.00000000000000E+00  -1.66380812937885E-19  -7.27560554379463E-02  -7.27560554379463E-02
     -1.52010615809190E-15   2.07250000000000E+00   2.07250000000000E+00   0.00000000000000E+00   0.00000000000000E+00
      2.68031713838657E-18   7.54688863982601E-02   7.54688863982601E-02  -1.13914573045500E-15   3.00000000000000E+00
      3.00000000000000E+00   0.00000000000000E+00   0.00000000000000E+00   0.00000000000000E+00   0.00000000000000E+00
      0.00000000000000E+00   2.61912482151102E-15
      7.15833333333334E-01
      0.00000000000000E+00   0.00000000000000E+00   0.00000000000000E+00   0.00000000000000E+00  -6.24276834313989E-18
     -2.80213487923615E-03  -2.80213487923615E-03   4.02517779964946E-17   0.00000000000000E+00   0.00000000000000E+00
      0.00000000000000E+00   0.00000000000000E+00  -1.72327685393840E-19  -7.53332675110059E-02  -7.53332675110059E-02
     -1.50303204558186E-15   2.14750000000000E+00   2.14750000000000E+00   0.00000000000000E+00   0.00000000000000E+00
      2.82636078300208E-18   7.81354023902420E-02   7.81354023902420E-02  -1.11851258642198E-15   3.00000000000000E+00
      3.00000000000000E+00   0.00000000000000E+00   0.00000000000000E+00   0.00000000000000E+00   0.00000000000000E+00
      0.00000000000000E+00   2.58129285400734E-15
      7.40833333333334E-01
      0.00000000000000E+00   0.00000000000000E+00   0.00000000000000E+00   0.00000000000000E+00  -6.41799911014629E-18
     -2.89079257878587E-03  -2.89079257878588E-03   4.03769789517091E-17   0.00000000000000E+00   0.00000000000000E+00
      0.00000000000000E+00   0.00000000000000E+00  -1.78265029347186E-19  -7.79062540365271E-02  -7.79062540365271E-02
     -1.48596155262989E-15   2.22250000000000E+00   2.22250000000000E+00   0.00000000000000E+00   0.00000000000000E+00
      2.97275222953270E-18   8.07970466153130E-02   8.07970466153130E-02  -1.09788352804581E-15   3.00000000000000E+00
      3.00000000000000E+00   0.00000000000000E+00   0.00000000000000E+00   0.00000000000000E+00   0.00000000000000E+00
      0.00000000000000E+00   2.54346810172399E-15
      7.65833333333334E-01
      0.00000000000000E+00   0.00000000000000E+00   0.00000000000000E+00   0.00000000000000E+00  -6.59075951667349E-18
     -2.97880503421083E-03  -2.97880503421084E-03   4.05026729770683E-17   0.00000000000000E+00   0.00000000000000E+00
      0.00000000000000E+00   0.00000000000000E+00  -1.84192935736163E-19  -8.04749949203322E-02  -8.04749949203322E-02
     -1.46889456187953E-15   2.29750000000000E+00   2.29750000000000E+00   0.00000000000000E+00   0.00000000000000E+00
      3.11934132253744E-18   8.34537999545430E-02   8.34537999545430E-02  -1.07725840091267E-15   3.00000000000000E+00
      3.00000000000000E+00   0.00000000000000E+00   0.00000000000000E+00   0.00000000000000E+00   0.00000000000000E+00
      0.00000000000000E+00   2.50565028981513E-15
      7.90833333333334E-01
      0.00000000000000E+00   0.00000000000000E+00   0.00000000000000E+00   0.00000000000000E+00  -6.76109122532522E-18
     -3.06617350500213E-03  -3.06617350500214E-03   4.06288629260234E-17   0.00000000000000E+00   0.00000000000000E+00
      0.00000000000000E+00   0.00000000000000E+00  -1.90111488791841E-19  -8.30394710420790E-02  -8.30394710420790E-02
     -1.45183095591195E-15   2.37250000000000E+00   2.37250000000000E+00   0.00000000000000E+00   0.00000000000000E+00
      3.26599184822214E-18   8.61056445470811E-02   8.61056445470811E-02  -1.05663704843444E-15   3.00000000000000E+00
      3.00000000000000E+00   0.00000000000000E+00   0.00000000000000E+00   0.00000000000000E+00   0.00000000000000E+00
      0.00000000000000E+00   2.46783914142038E-15
      8.15833333333334E-01
      0.00000000000000E+00   0.00000000000000E+00   0.00000000000000E+00   0.00000000000000E+00  -6.92903542496174E-18
     -3.15289950863729E-03  -3.15289950863729E-03   4.07555517241051E-17   0.00000000000000E+00   0.00000000000000E+00
      0.00000000000000E+00   0.00000000000000E+00  -1.96020766769874E-19  -8.55996642177742E-02  -8.55996642177742E-02
     -1.43477062494754E-15   2.44750000000000E+00   2.44750000000000E+00   0.00000000000000E+00   0.00000000000000E+00
      3.41258030843209E-18   8.87525637264115E-02   8.87525637264115E-02  -1.03601932168155E-15   3.00000000000000E+00
      3.00000000000000E+00   0.00000000000000E+00   0.00000000000000E+00   0.00000000000000E+00   0.00000000000000E+00
      0.00000000000000E+00   2.43003439490498E-15
      8.40833333333334E-01
      0.00000000000000E+00   0.00000000000000E+00   0.00000000000000E+00   0.00000000000000E+00  -7.09463281089064E-18
     -3.23898480674593E-03  -3.23898480674594E-03   4.08827420441423E-17   0.00000000000000E+00   0.00000000000000E+00
      0.00000000000000E+00   0.00000000000000E+00  -2.01920842533222E-19  -8.81555571370193E-02  -8.81555571370193E-02
     -1.41771345939972E-15   2.52250000000000E+00   2.52250000000000E+00   0.00000000000000E+00   0.00000000000000E+00
      3.55899480747208E-18   9.13945419437653E-02   9.13945419437653E-02  -1.01540507541152E-15   3.00000000000000E+00
      3.00000000000000E+00   0.00000000000000E+00   0.00000000000000E+00   0.00000000000000E+00   0.00000000000000E+00
      0.00000000000000E+00   2.39223579276710E-15
      8.65833333333334E-01
      0.00000000000000E+00   0.00000000000000E+00   0.00000000000000E+00   0.00000000000000E+00  -7.25792356049599E-18