DF-ISE text

Info {
  version   = 1.0
  type      = xyplot
  datasets  = [
    "time"
    "substrate OuterVoltage" "substrate InnerVoltage" "substrate QuasiFermiPotential" "substrate DisplacementCurrent" "substrate eCurrent"
    "substrate hCurrent" "substrate TotalCurrent" "substrate Charge" "source OuterVoltage" "source InnerVoltage"
    "source QuasiFermiPotential" "source DisplacementCurrent" "source eCurrent" "source hCurrent" "source TotalCurrent"
    "source Charge" "drain OuterVoltage" "drain InnerVoltage" "drain QuasiFermiPotential" "drain DisplacementCurrent"
    "drain eCurrent" "drain hCurrent" "drain TotalCurrent" "drain Charge" "gate OuterVoltage"
    "gate InnerVoltage" "gate QuasiFermiPotential" "gate DisplacementCurrent" "gate eCurrent" "gate hCurrent"
    "gate TotalCurrent" "gate Charge" ]
  functions = [
    Time
    OuterVoltage InnerVoltage QuasiFermiPotential DisplacementCurrent eCurrent
    hCurrent TotalCurrent Charge OuterVoltage InnerVoltage
    QuasiFermiPotential DisplacementCurrent eCurrent hCurrent TotalCurrent
    Charge OuterVoltage InnerVoltage QuasiFermiPotential DisplacementCurrent
    eCurrent hCurrent TotalCurrent Charge OuterVoltage
    InnerVoltage QuasiFermiPotential DisplacementCurrent eCurrent hCurrent
    TotalCurrent Charge ]
}

Data {
      0.00000000000000E+00
      0.00000000000000E+00   0.00000000000000E+00   0.00000000000000E+00   0.00000000000000E+00   2.38840464437332E-24
      1.28074817167159E-27   2.38968539254499E-24  -6.49599810740959E-15   0.00000000000000E+00   0.00000000000000E+00
      0.00000000000000E+00   0.00000000000000E+00  -8.72609753101581E-25  -5.30449338364986E-29  -8.72662798035417E-25
      3.08029472302941E-15   0.00000000000000E+00   0.00000000000000E+00   0.00000000000000E+00   0.00000000000000E+00
     -1.51579507855982E-24  -1.22751594974963E-27  -1.51702259450957E-24   3.08029472302941E-15   0.00000000000000E+00
      0.00000000000000E+00   0.00000000000000E+00   0.00000000000000E+00   0.00000000000000E+00   0.00000000000000E+00
      0.00000000000000E+00   3.35408661350765E-16
      1.00000000000000E-02
      0.00000000000000E+00   0.00000000000000E+00   0.00000000000000E+00   0.00000000000000E+00  -3.11207236172442E-20
     -2.27354804721669E-17  -2.27666011957841E-17  -6.55773967139502E-15   0.00000000000000E+00   0.00000000000000E+00
      0.00000000000000E+00   0.00000000000000E+00  -6.22822817210392E-20   1.55186265845132E-27  -6.22822801691765E-20
      3.08029472302939E-15   3.00000000000000E-02   3.00000000000000E-02   0.00000000000000E+00   0.00000000000000E+00
      2.28042074909420E-17   2.46759850112372E-20   2.28288834759533E-17   3.14382355785011E-15   0.00000000000000E+00
      0.00000000000000E+00   0.00000000000000E+00   0.00000000000000E+00   0.00000000000000E+00   0.00000000000000E+00
      0.00000000000000E+00   3.33621390515517E-16
      2.33333333333333E-02
      0.00000000000000E+00   0.00000000000000E+00   0.00000000000000E+00   0.00000000000000E+00  -4.33957596287161E-20
     -4.76704088318106E-17  -4.77138045914393E-17  -6.63978146528668E-15   0.00000000000000E+00   0.00000000000000E+00
      0.00000000000000E+00   0.00000000000000E+00  -8.33998743358340E-20   4.29099739813864E-29  -8.33998742929240E-20
      3.08029472302937E-15   7.00000000000000E-02   7.00000000000000E-02   0.00000000000000E+00   0.00000000000000E+00
      4.77759438074824E-17   2.12606582498228E-20   4.77972044657322E-17   3.22825929469643E-15   0.00000000000000E+00
      0.00000000000000E+00   0.00000000000000E+00   0.00000000000000E+00   0.00000000000000E+00   0.00000000000000E+00
      0.00000000000000E+00   3.31227447560882E-16
      4.28888888888889E-02
      0.00000000000000E+00   0.00000000000000E+00   0.00000000000000E+00   0.00000000000000E+00   8.09753304822984E-23
     -8.54674908872623E-17  -8.54674099119318E-17  -6.75965197251516E-15   0.00000000000000E+00   0.00000000000000E+00
      0.00000000000000E+00   0.00000000000000E+00  -8.69223957843247E-20  -2.64578969931969E-27  -8.69223984301144E-20
      3.08029472302943E-15   1.28666666666667E-01   1.28666666666667E-01   0.00000000000000E+00   0.00000000000000E+00
      8.55277066547423E-17   2.66256556195249E-20   8.55543323103619E-17   3.35166295740189E-15   0.00000000000000E+00
      0.00000000000000E+00   0.00000000000000E+00   0.00000000000000E+00   0.00000000000000E+00   0.00000000000000E+00
      0.00000000000000E+00   3.27694292083838E-16
      6.78888888888889E-02
      0.00000000000000E+00   0.00000000000000E+00   0.00000000000000E+00   0.00000000000000E+00  -5.38963709914720E-20
     -1.58570049576028E-16  -1.58623945947019E-16  -6.91224607388826E-15   0.00000000000000E+00   0.00000000000000E+00
      0.00000000000000E+00   0.00000000000000E+00  -8.67214996873511E-20  -4.27276598991549E-27  -8.67215039601170E-20
      3.08029472302927E-15   2.03666666666667E-01   2.03666666666667E-01   0.00000000000000E+00   0.00000000000000E+00
      1.58663877148373E-16   4.67903026060894E-20   1.58710667450979E-16   3.50881039687025E-15   0.00000000000000E+00
      0.00000000000000E+00   0.00000000000000E+00   0.00000000000000E+00   0.00000000000000E+00   0.00000000000000E+00
      0.00000000000000E+00   3.23140953988754E-16
      9.28888888888889E-02
      0.00000000000000E+00   0.00000000000000E+00   0.00000000000000E+00   0.00000000000000E+00  -5.54573178615434E-20
     -3.45929663497739E-16  -3.45985120815601E-16  -7.06418369056777E-15   0.00000000000000E+00   0.00000000000000E+00
      0.00000000000000E+00   0.00000000000000E+00  -8.67861354517075E-20  -2.13804904808159E-27  -8.67861375897565E-20
      3.08029472302911E-15   2.78666666666667E-01   2.78666666666667E-01   0.00000000000000E+00   0.00000000000000E+00
      3.46525755285357E-16  -4.53848332166951E-19   3.46071906953190E-16   3.66533928457824E-15   0.00000000000000E+00
      0.00000000000000E+00   0.00000000000000E+00   0.00000000000000E+00   0.00000000000000E+00   0.00000000000000E+00
      0.00000000000000E+00   3.18549682960425E-16
      1.17888888888889E-01
      0.00000000000000E+00   0.00000000000000E+00   0.00000000000000E+00   0.00000000000000E+00  -5.39611132276868E-20
     -7.78863019242949E-16  -7.78916980356176E-16  -7.21546232170766E-15   0.00000000000000E+00   0.00000000000000E+00
      0.00000000000000E+00   0.00000000000000E+00  -8.69092765118845E-20   2.62662220922499E-28  -8.69092762492222E-20
      3.08029472302874E-15   3.53666666666667E-01   3.53666666666667E-01   0.00000000000000E+00   0.00000000000000E+00
      7.78862430734989E-16   1.41458897437842E-19   7.79003889632427E-16   3.82124311877268E-15   0.00000000000000E+00
      0.00000000000000E+00   0.00000000000000E+00   0.00000000000000E+00   0.00000000000000E+00   0.00000000000000E+00
      0.00000000000000E+00   3.13924479906236E-16
      1.42888888888889E-01
      0.00000000000000E+00   0.00000000000000E+00   0.00000000000000E+00   0.00000000000000E+00  -4.02286355964631E-20
     -1.30036015070034E-15  -1.30040037933594E-15  -7.36603079031977E-15   0.00000000000000E+00   0.00000000000000E+00
      0.00000000000000E+00   0.00000000000000E+00  -8.70632088947594E-20   1.02056031679183E-30  -8.70632088937388E-20
      3.08029472302830E-15   4.28666666666667E-01   4.28666666666667E-01   0.00000000000000E+00   0.00000000000000E+00
      1.30044708199914E-15   4.03605456940367E-20   1.30048744254483E-15   3.97646669105969E-15   0.00000000000000E+00
      0.00000000000000E+00   0.00000000000000E+00   0.00000000000000E+00   0.00000000000000E+00   0.00000000000000E+00
      0.00000000000000E+00   3.09269376231783E-16
      1.67888888888889E-01
      0.00000000000000E+00   0.00000000000000E+00   0.00000000000000E+00   0.00000000000000E+00  -5.42406038068951E-20
     -1.60116975879232E-15  -1.60122399939613E-15  -7.51581959512455E-15   0.00000000000000E+00   0.00000000000000E+00
      0.00000000000000E+00   0.00000000000000E+00  -8.72218069107357E-20  -1.16069388171779E-27  -8.72218080714296E-20
      3.08029472302805E-15   5.03666666666667E-01   5.03666666666667E-01   0.00000000000000E+00   0.00000000000000E+00
      1.60127466191441E-15   3.65592897866545E-20   1.60131122120420E-15   4.13093711951141E-15   0.00000000000000E+00
      0.00000000000000E+00   0.00000000000000E+00   0.00000000000000E+00   0.00000000000000E+00   0.00000000000000E+00
      0.00000000000000E+00   3.04587752585086E-16
      1.92888888888889E-01
      0.00000000000000E+00   0.00000000000000E+00   0.00000000000000E+00   0.00000000000000E+00  -5.43254021381876E-20
     -1.71480469393417E-15  -1.71485901933631E-15  -7.66477256701994E-15   0.00000000000000E+00   0.00000000000000E+00
      0.00000000000000E+00   0.00000000000000E+00  -8.73829101889727E-20   3.54244259772286E-28  -8.73829098347285E-20
      3.08029472302796E-15   5.78666666666667E-01   5.78666666666667E-01   0.00000000000000E+00   0.00000000000000E+00
      1.71491867868452E-15   2.77235616301117E-20   1.71494640224615E-15   4.28459578982794E-15   0.00000000000000E+00
      0.00000000000000E+00   0.00000000000000E+00   0.00000000000000E+00   0.00000000000000E+00   0.00000000000000E+00
      0.00000000000000E+00   2.99882054164038E-16
      2.17888888888889E-01
      0.00000000000000E+00   0.00000000000000E+00   0.00000000000000E+00   0.00000000000000E+00  -5.44089410051089E-20
     -1.77190570242750E-15  -1.77196011136850E-15  -7.81285865426431E-15   0.00000000000000E+00   0.00000000000000E+00
      0.00000000000000E+00   0.00000000000000E+00  -8.75405398914264E-20  -2.86942555224718E-28  -8.75405401783689E-20
      3.08029472302791E-15   6.53666666666667E-01   6.53666666666667E-01   0.00000000000000E+00   0.00000000000000E+00
      1.77200692849429E-15   4.07234143895310E-20   1.77204765190868E-15   4.43741003317109E-15   0.00000000000000E+00
      0.00000000000000E+00   0.00000000000000E+00   0.00000000000000E+00   0.00000000000000E+00   0.00000000000000E+00
      0.00000000000000E+00   2.95153898065310E-16
      2.42888888888889E-01
      0.00000000000000E+00   0.00000000000000E+00   0.00000000000000E+00   0.00000000000000E+00  -5.44870574102071E-20
     -1.80606108802425E-15  -1.80611557508166E-15  -7.96005575386495E-15   0.00000000000000E+00   0.00000000000000E+00
      0.00000000000000E+00   0.00000000000000E+00  -8.76968358216349E-20   1.11945975127301E-27  -8.76968347021752E-20
      3.08029472302788E-15   7.28666666666667E-01   7.28666666666667E-01   0.00000000000000E+00   0.00000000000000E+00
      1.80616321322571E-15   4.00586906499127E-20   1.80620327191636E-15   4.58935662118524E-15   0.00000000000000E+00
      0.00000000000000E+00   0.00000000000000E+00   0.00000000000000E+00   0.00000000000000E+00   0.00000000000000E+00
      0.00000000000000E+00   2.90404409651832E-16
      2.67888888888889E-01
      0.00000000000000E+00   0.00000000000000E+00   0.00000000000000E+00   0.00000000000000E+00  -5.45736631373371E-20
     -1.83059293526585E-15  -1.83064750892899E-15  -8.10633535828099E-15   0.00000000000000E+00   0.00000000000000E+00
      0.00000000000000E+00   0.00000000000000E+00  -8.78493468376581E-20  -1.12943064893592E-27  -8.78493479670888E-20
      3.08029472302786E-15   8.03666666666667E-01   8.03666666666667E-01   0.00000000000000E+00   0.00000000000000E+00
      1.83069861800959E-15   3.67402673596753E-20   1.83073535827695E-15   4.74040604616477E-15   0.00000000000000E+00
      0.00000000000000E+00   0.00000000000000E+00   0.00000000000000E+00   0.00000000000000E+00   0.00000000000000E+00
      0.00000000000000E+00   2.85634589088359E-16
      2.92888888888889E-01
      0.00000000000000E+00   0.00000000000000E+00   0.00000000000000E+00   0.00000000000000E+00  -5.46555078623157E-20
     -1.85476636278176E-15  -1.85482101828962E-15  -8.25166021285942E-15   0.00000000000000E+00   0.00000000000000E+00
      0.00000000000000E+00   0.00000000000000E+00  -8.79951339265259E-20   6.62959762595723E-28  -8.79951332635661E-20
      3.08029472302783E-15   8.78666666666667E-01   8.78666666666667E-01   0.00000000000000E+00   0.00000000000000E+00
      1.85487224627045E-15   3.67671524333053E-20   1.85490901342289E-15   4.89051998673694E-15   0.00000000000000E+00
      0.00000000000000E+00   0.00000000000000E+00   0.00000000000000E+00   0.00000000000000E+00   0.00000000000000E+00
      0.00000000000000E+00   2.80845503094647E-16
      3.17888888888889E-01
      0.00000000000000E+00   0.00000000000000E+00   0.00000000000000E+00   0.00000000000000E+00  -5.47353055727561E-20
     -1.87533903937300E-15  -1.87539377467857E-15  -8.39599725040890E-15   0.00000000000000E+00   0.00000000000000E+00
      0.00000000000000E+00   0.00000000000000E+00  -8.81378154731535E-20   7.73262820564685E-28  -8.81378146998907E-20
      3.08029472302781E-15   9.53666666666667E-01   9.53666666666667E-01   0.00000000000000E+00   0.00000000000000E+00
      1.87544512296812E-15   3.67895251475544E-20   1.87548191249326E-15   5.03966428055453E-15   0.00000000000000E+00
      0.00000000000000E+00   0.00000000000000E+00   0.00000000000000E+00   0.00000000000000E+00   0.00000000000000E+00
      0.00000000000000E+00   2.76038246826564E-16
      3.42888888888889E-01
      0.00000000000000E+00   0.00000000000000E+00   0.00000000000000E+00   0.00000000000000E+00  -5.48147680305159E-20
     -1.89272778659809E-15  -1.89278260136612E-15  -8.53934622394433E-15   0.00000000000000E+00   0.00000000000000E+00
      0.00000000000000E+00   0.00000000000000E+00  -8.82769300728425E-20  -1.00275932756025E-27  -8.82769310756018E-20
      3.08029472302780E-15   1.02866666666667E+00   1.02866666666667E+00   0.00000000000000E+00   0.00000000000000E+00
      1.89283407107121E-15   3.68072259864200E-20   1.89287087829720E-15   5.18783766901554E-15   0.00000000000000E+00
      0.00000000000000E+00   0.00000000000000E+00   0.00000000000000E+00   0.00000000000000E+00   0.00000000000000E+00
      0.00000000000000E+00   2.71213831900999E-16
      3.67888888888889E-01
      0.00000000000000E+00   0.00000000000000E+00   0.00000000000000E+00   0.00000000000000E+00  -5.48929124798024E-20
     -1.91193410621615E-15  -1.91198899912863E-15  -8.68173137195568E-15   0.00000000000000E+00   0.00000000000000E+00
      0.00000000000000E+00   0.00000000000000E+00  -8.84136066493704E-20  -1.79398125592901E-27  -8.84136084433516E-20
      3.08029472302778E-15   1.10366666666667E+00   1.10366666666667E+00   0.00000000000000E+00   0.00000000000000E+00
      1.91204059317137E-15   3.68195657086769E-20   1.91207741273707E-15   5.33506351448325E-15   0.00000000000000E+00
      0.00000000000000E+00   0.00000000000000E+00   0.00000000000000E+00   0.00000000000000E+00   0.00000000000000E+00
      0.00000000000000E+00   2.66373134444666E-16
      3.92888888888889E-01
      0.00000000000000E+00   0.00000000000000E+00   0.00000000000000E+00   0.00000000000000E+00  -5.49697251330171E-20
     -1.93510471791060E-15  -1.93515968763573E-15  -8.82313440111523E-15   0.00000000000000E+00   0.00000000000000E+00
      0.00000000000000E+00   0.00000000000000E+00  -8.85486632162991E-20   1.93157822388521E-28  -8.85486630231413E-20
      3.08029472302776E-15   1.17866666666667E+00   1.17866666666667E+00   0.00000000000000E+00   0.00000000000000E+00
      1.93521140865670E-15   3.68276420606416E-20   1.93524823629876E-15   5.48132277361925E-15   0.00000000000000E+00
      0.00000000000000E+00   0.00000000000000E+00   0.00000000000000E+00   0.00000000000000E+00   0.00000000000000E+00
      0.00000000000000E+00   2.61516904468221E-16
      4.17888888888889E-01
      0.00000000000000E+00   0.00000000000000E+00   0.00000000000000E+00   0.00000000000000E+00  -5.46611854766863E-20
     -1.96098246249498E-15  -1.96103712368046E-15  -8.96343718772878E-15   0.00000000000000E+00   0.00000000000000E+00
      0.00000000000000E+00   0.00000000000000E+00  -8.86806161386125E-20  -1.76919080602922E-27  -8.86806179078033E-20
      3.08029472302817E-15   1.25366666666667E+00   1.25366666666667E+00   0.00000000000000E+00   0.00000000000000E+00
      1.96108897035671E-15   3.68339416530054E-20   1.96112580429836E-15   5.62649666915219E-15   0.00000000000000E+00
      0.00000000000000E+00   0.00000000000000E+00   0.00000000000000E+00   0.00000000000000E+00   0.00000000000000E+00
      0.00000000000000E+00   2.56645795548416E-16
      4.42888888888889E-01
      0.00000000000000E+00   0.00000000000000E+00   0.00000000000000E+00   0.00000000000000E+00  -5.41272723502278E-20
     -1.98797031314924E-15  -1.98802444042159E-15  -9.10239709165760E-15   0.00000000000000E+00   0.00000000000000E+00
      0.00000000000000E+00   0.00000000000000E+00  -8.88132104449505E-20  -9.64185981330034E-28  -8.88132114091365E-20
      3.08029472302552E-15   1.32866666666667E+00   1.32866666666667E+00   0.00000000000000E+00   0.00000000000000E+00
      1.98807641367645E-15   3.68399565465577E-20   1.98811325363300E-15   5.77034198034137E-15   0.00000000000000E+00
      0.00000000000000E+00   0.00000000000000E+00   0.00000000000000E+00   0.00000000000000E+00   0.00000000000000E+00
      0.00000000000000E+00   2.51760388290706E-16
      4.67888888888889E-01
      0.00000000000000E+00   0.00000000000000E+00   0.00000000000000E+00   0.00000000000000E+00  -5.49882602411382E-20
     -2.01496809294696E-15  -2.01502308120720E-15  -9.23961862642745E-15   0.00000000000000E+00   0.00000000000000E+00
      0.00000000000000E+00   0.00000000000000E+00  -8.89487132951210E-20   1.84097997764367E-27  -8.89487114541411E-20
      3.08029472301749E-15   1.40366666666667E+00   1.40366666666667E+00   0.00000000000000E+00   0.00000000000000E+00
      2.01507518410931E-15   3.68458093420739E-20   2.01511202991865E-15   5.91246270400724E-15   0.00000000000000E+00
      0.00000000000000E+00   0.00000000000000E+00   0.00000000000000E+00   0.00000000000000E+00   0.00000000000000E+00
      0.00000000000000E+00   2.46861199402725E-16
      4.92888888888889E-01
      0.00000000000000E+00   0.00000000000000E+00   0.00000000000000E+00   0.00000000000000E+00  -5.52889086667606E-20
     -2.04099752908072E-15  -2.04105281798939E-15  -9.37449580919683E-15   0.00000000000000E+00   0.00000000000000E+00
      0.00000000000000E+00   0.00000000000000E+00  -8.90840334878673E-20  -5.65108136808506E-28  -8.90840340529754E-20
      3.08029472302766E-15   1.47866666666667E+00   1.47866666666667E+00   0.00000000000000E+00   0.00000000000000E+00
      2.04110505045194E-15   3.68515714960178E-20   2.04114190202344E-15   6.05225240546842E-15   0.00000000000000E+00
      0.00000000000000E+00   0.00000000000000E+00   0.00000000000000E+00   0.00000000000000E+00   0.00000000000000E+00
      0.00000000000000E+00   2.41948680700749E-16
      5.17888888888889E-01
      0.00000000000000E+00   0.00000000000000E+00   0.00000000000000E+00   0.00000000000000E+00  -5.53714885012528E-20
     -2.06631188163124E-15  -2.06636725311974E-15  -9.50612665016977E-15   0.00000000000000E+00   0.00000000000000E+00
      0.00000000000000E+00   0.00000000000000E+00  -8.92196426913418E-20   2.82314520059605E-27  -8.92196398681966E-20
      3.08029472302764E-15   1.55366666666667E+00   1.55366666666667E+00   0.00000000000000E+00   0.00000000000000E+00
      2.06641961557390E-15   3.68571857069313E-20   2.06645647275961E-15   6.18880870970890E-15   0.00000000000000E+00
      0.00000000000000E+00   0.00000000000000E+00   0.00000000000000E+00   0.00000000000000E+00   0.00000000000000E+00
      0.00000000000000E+00   2.37023217433236E-16
      5.42888888888889E-01
      0.00000000000000E+00   0.00000000000000E+00   0.00000000000000E+00   0.00000000000000E+00  -5.54518834941411E-20
     -2.09233116689725E-15  -2.09238661878075E-15  -9.63326309937562E-15   0.00000000000000E+00   0.00000000000000E+00
      0.00000000000000E+00   0.00000000000000E+00  -8.93572563902270E-20   2.01585621810380E-27  -8.93572543743708E-20
      3.08029472302761E-15   1.62866666666667E+00   1.62866666666667E+00   0.00000000000000E+00   0.00000000000000E+00
      2.09243911345441E-15   3.68625807058911E-20   2.09247597603512E-15   6.32088324114843E-15   0.00000000000000E+00
      0.00000000000000E+00   0.00000000000000E+00   0.00000000000000E+00   0.00000000000000E+00   0.00000000000000E+00
      0.00000000000000E+00   2.32085135199593E-16
      5.67888888888889E-01
      0.00000000000000E+00   0.00000000000000E+00   0.00000000000000E+00   0.00000000000000E+00  -5.55323125734231E-20
     -2.11850479571938E-15  -2.11856032803196E-15  -9.75452025211470E-15   0.00000000000000E+00   0.00000000000000E+00
      0.00000000000000E+00   0.00000000000000E+00  -8.94923843836270E-20   4.17606397869484E-28  -8.94923839660206E-20
      3.08029472302759E-15   1.70366666666667E+00   1.70366666666667E+00   0.00000000000000E+00   0.00000000000000E+00
      2.11861295275257E-15   3.68676633522523E-20   2.11864982041592E-15   6.44709080899722E-15   0.00000000000000E+00
      0.00000000000000E+00   0.00000000000000E+00   0.00000000000000E+00   0.00000000000000E+00   0.00000000000000E+00
      0.00000000000000E+00   2.27134720089899E-16
      5.92888888888889E-01
      0.00000000000000E+00   0.00000000000000E+00   0.00000000000000E+00   0.00000000000000E+00  -5.56116134465300E-20
     -2.14144427842267E-15  -2.14149989003611E-15  -9.86914979737790E-15   0.00000000000000E+00   0.00000000000000E+00
      0.00000000000000E+00   0.00000000000000E+00  -8.96233389232031E-20   1.36885989436716E-27  -8.96233375543432E-20
      3.08029472302756E-15   1.77866666666667E+00   1.77866666666667E+00   0.00000000000000E+00   0.00000000000000E+00
      2.14155264100569E-15   3.68723679731262E-20   2.14158951337366E-15   6.56668282434636E-15   0.00000000000000E+00
      0.00000000000000E+00   0.00000000000000E+00   0.00000000000000E+00   0.00000000000000E+00   0.00000000000000E+00
      0.00000000000000E+00   2.22172250003982E-16
      6.17888888888889E-01
      0.00000000000000E+00   0.00000000000000E+00   0.00000000000000E+00   0.00000000000000E+00  -5.56845494814681E-20
     -2.16032373629679E-15  -2.16037942084628E-15  -9.97794010439714E-15   0.00000000000000E+00   0.00000000000000E+00
      0.00000000000000E+00   0.00000000000000E+00  -8.97531441982449E-20  -1.78904642727259E-27  -8.97531459872913E-20
      3.08029472302755E-15   1.85366666666667E+00   1.85366666666667E+00   0.00000000000000E+00   0.00000000000000E+00
      2.16043229726531E-15   3.68767269463094E-20   2.16046917399226E-15   6.68044735522579E-15   0.00000000000000E+00
      0.00000000000000E+00   0.00000000000000E+00   0.00000000000000E+00   0.00000000000000E+00   0.00000000000000E+00
      0.00000000000000E+00   2.17198026143811E-16
      6.42888888888889E-01
      0.00000000000000E+00   0.00000000000000E+00   0.00000000000000E+00   0.00000000000000E+00  -5.57551604950693E-20
     -2.17927866366024E-15  -2.17933441882074E-15  -1.00828463770643E-14   0.00000000000000E+00   0.00000000000000E+00
      0.00000000000000E+00   0.00000000000000E+00  -8.98771853183326E-20   1.94221114478988E-27  -8.98771833761214E-20
      3.08029472302753E-15   1.92866666666667E+00   1.92866666666667E+00   0.00000000000000E+00   0.00000000000000E+00
      2.17938741513580E-15   3.68808683101075E-20   2.17942429600411E-15   6.79033926567810E-15   0.00000000000000E+00
      0.00000000000000E+00   0.00000000000000E+00   0.00000000000000E+00   0.00000000000000E+00   0.00000000000000E+00
      0.00000000000000E+00   2.12212388358709E-16
      6.67888888888889E-01
      0.00000000000000E+00   0.00000000000000E+00   0.00000000000000E+00   0.00000000000000E+00  -5.58224034414275E-20
     -2.20363328539821E-15  -2.20368910780165E-15  -1.01856351809946E-14   0.00000000000000E+00   0.00000000000000E+00
      0.00000000000000E+00   0.00000000000000E+00  -8.99955990587486E-20  -1.16517264874219E-27  -8.99956002239213E-20
      3.08029472302751E-15   2.00366666666667E+00   2.00366666666667E+00   0.00000000000000E+00   0.00000000000000E+00
      2.20374221848558E-15   3.68849163030884E-20   2.20377910340188E-15   6.89812475511090E-15   0.00000000000000E+00
      0.00000000000000E+00   0.00000000000000E+00   0.00000000000000E+00   0.00000000000000E+00   0.00000000000000E+00
      0.00000000000000E+00   2.07215702856220E-16
      6.92888888888889E-01
      0.00000000000000E+00   0.00000000000000E+00   0.00000000000000E+00   0.00000000000000E+00  -5.58819538275148E-20
     -2.23428903017125E-15  -2.23434491212508E-15  -1.02873254768943E-14   0.00000000000000E+00   0.00000000000000E+00
      0.00000000000000E+00   0.00000000000000E+00  -9.01095387754077E-20  -1.40066088023271E-27  -9.01095401760686E-20
      3.08029472302748E-15   2.07866666666667E+00   2.07866666666667E+00   0.00000000000000E+00   0.00000000000000E+00
      2.23439813272639E-15   3.68889388646516E-20   2.23443502166526E-15   7.00482242738242E-15   0.00000000000000E+00
      0.00000000000000E+00   0.00000000000000E+00   0.00000000000000E+00   0.00000000000000E+00   0.00000000000000E+00
      0.00000000000000E+00   2.02208326484360E-16
      7.17888888888889E-01
      0.00000000000000E+00   0.00000000000000E+00   0.00000000000000E+00   0.00000000000000E+00  -5.59365528891285E-20
     -2.26434203858148E-15  -2.26439797513437E-15  -1.03884081718805E-14   0.00000000000000E+00   0.00000000000000E+00
      0.00000000000000E+00   0.00000000000000E+00  -9.02143754356994E-20   1.47103598044213E-27  -9.02143739646635E-20
      3.08029472302745E-15   2.15366666666667E+00   2.15366666666667E+00   0.00000000000000E+00   0.00000000000000E+00
      2.26445129654583E-15   3.68929624991799E-20   2.26448818950833E-15   7.11092288080725E-15   0.00000000000000E+00
      0.00000000000000E+00   0.00000000000000E+00   0.00000000000000E+00   0.00000000000000E+00   0.00000000000000E+00
      0.00000000000000E+00   1.97190568045821E-16
      7.42888888888889E-01
      0.00000000000000E+00   0.00000000000000E+00   0.00000000000000E+00   0.00000000000000E+00  -5.59849431826872E-20
     -2.28664763445272E-15  -2.28670361939590E-15  -1.04891039645545E-14   0.00000000000000E+00   0.00000000000000E+00
      0.00000000000000E+00   0.00000000000000E+00  -9.03137281735016E-20   1.34222394655610E-27  -9.03137268312777E-20
      3.08029472302743E-15   2.22866666666667E+00   2.22866666666667E+00   0.00000000000000E+00   0.00000000000000E+00
      2.28675703612752E-15   3.68969952138923E-20   2.28679393312273E-15   7.21664657096243E-15   0.00000000000000E+00
      0.00000000000000E+00   0.00000000000000E+00   0.00000000000000E+00   0.00000000000000E+00   0.00000000000000E+00
      0.00000000000000E+00   1.92162670564663E-16
      7.67888888888889E-01
      0.00000000000000E+00   0.00000000000000E+00   0.00000000000000E+00   0.00000000000000E+00  -5.60299273384173E-20
     -2.30292969649471E-15  -2.30298572642205E-15  -1.05895069127682E-14   0.00000000000000E+00   0.00000000000000E+00
      0.00000000000000E+00   0.00000000000000E+00  -9.04089260629255E-20  -1.27360306929723E-28  -9.04089261902858E-20
      3.08029472302742E-15   2.30366666666667E+00   2.30366666666667E+00   0.00000000000000E+00   0.00000000000000E+00
      2.30303923430990E-15   3.69010383386148E-20   2.30307613534824E-15   7.32208736622893E-15   0.00000000000000E+00
      0.00000000000000E+00   0.00000000000000E+00   0.00000000000000E+00   0.00000000000000E+00   0.00000000000000E+00
      0.00000000000000E+00   1.87124823511881E-16
      7.92888888888889E-01
      0.00000000000000E+00   0.00000000000000E+00   0.00000000000000E+00   0.00000000000000E+00  -5.60725995516497E-20
     -2.32231061095638E-15  -2.32236668355593E-15  -1.06896586573828E-14   0.00000000000000E+00   0.00000000000000E+00
      0.00000000000000E+00   0.00000000000000E+00  -9.05019792029143E-20   7.09380379919712E-28  -9.05019784935339E-20
      3.08029472302740E-15   2.37866666666667E+00   2.37866666666667E+00   0.00000000000000E+00   0.00000000000000E+00
      2.32242028044334E-15   3.69050910793080E-20   2.32245718553442E-15   7.42728674613392E-15   0.00000000000000E+00
      0.00000000000000E+00   0.00000000000000E+00   0.00000000000000E+00   0.00000000000000E+00   0.00000000000000E+00
      0.00000000000000E+00   1.82077188221476E-16
      8.17888888888889E-01
      0.00000000000000E+00   0.00000000000000E+00   0.00000000000000E+00   0.00000000000000E+00  -5.61141605731378E-20
     -2.36165195140294E-15  -2.36170806556352E-15  -1.07895819154031E-14   0.00000000000000E+00   0.00000000000000E+00
      0.00000000000000E+00   0.00000000000000E+00  -9.05931692627283E-20  -1.68362772366429E-27  -9.05931709463560E-20
      3.08029472302711E-15   2.45366666666667E+00   2.45366666666667E+00   0.00000000000000E+00   0.00000000000000E+00
      2.36176174958559E-15   3.69091488705136E-20   2.36179865873446E-15   7.53226728725502E-15   0.00000000000000E+00
      0.00000000000000E+00   0.00000000000000E+00   0.00000000000000E+00   0.00000000000000E+00   0.00000000000000E+00
      0.00000000000000E+00   1.77019905120958E-16
      8.42888888888889E-01
      0.00000000000000E+00   0.00000000000000E+00   0.00000000000000E+00   0.00000000000000E+00  -5.61516623568507E-20
     -2.45505713565074E-15  -2.45511328731310E-15  -1.08892912992065E-14   0.00000000000000E+00   0.00000000000000E+00
      0.00000000000000E+00   0.00000000000000E+00  -9.06867957349975E-20  -1.71843135607656E-27  -9.06867974534288E-20
      3.08029472302698E-15   2.52866666666667E+00   2.52866666666667E+00   0.00000000000000E+00   0.00000000000000E+00
      2.45516706088941E-15   3.69132211404062E-20   2.45520397411055E-15   7.63704350780989E-15   0.00000000000000E+00
      0.00000000000000E+00   0.00000000000000E+00   0.00000000000000E+00   0.00000000000000E+00   0.00000000000000E+00
      0.00000000000000E+00   1.71953068369660E-16
      8.67888888888889E-01
      0.00000000000000E+00   0.00000000000000E+00   0.00000000000000E+00   0.00000000000000E+00  -5.61946249820923E-20