DF-ISE text

Info {
  version   = 1.0
  type      = xyplot
  datasets  = [
    "time"
    "substrate OuterVoltage" "substrate InnerVoltage" "substrate QuasiFermiPotential" "substrate DisplacementCurrent" "substrate eCurrent"
    "substrate hCurrent" "substrate TotalCurrent" "substrate Charge" "source OuterVoltage" "source InnerVoltage"
    "source QuasiFermiPotential" "source DisplacementCurrent" "source eCurrent" "source hCurrent" "source TotalCurrent"
    "source Charge" "drain OuterVoltage" "drain InnerVoltage" "drain QuasiFermiPotential" "drain DisplacementCurrent"
    "drain eCurrent" "drain hCurrent" "drain TotalCurrent" "drain Charge" "gate OuterVoltage"
    "gate InnerVoltage" "gate QuasiFermiPotential" "gate DisplacementCurrent" "gate eCurrent" "gate hCurrent"
    "gate TotalCurrent" "gate Charge" ]
  functions = [
    Time
    OuterVoltage InnerVoltage QuasiFermiPotential DisplacementCurrent eCurrent
    hCurrent TotalCurrent Charge OuterVoltage InnerVoltage
    QuasiFermiPotential DisplacementCurrent eCurrent hCurrent TotalCurrent
    Charge OuterVoltage InnerVoltage QuasiFermiPotential DisplacementCurrent
    eCurrent hCurrent TotalCurrent Charge OuterVoltage
    InnerVoltage QuasiFermiPotential DisplacementCurrent eCurrent hCurrent
    TotalCurrent Charge ]
}

Data {
      0.00000000000000E+00
      0.00000000000000E+00   0.00000000000000E+00   0.00000000000000E+00   0.00000000000000E+00  -2.82888021065225E-20
      2.01275154176230E-27  -2.82888000937709E-20  -4.03836789801416E-15   0.00000000000000E+00   0.00000000000000E+00
      0.00000000000000E+00   0.00000000000000E+00   2.04054337827210E-19   3.62269214605572E-27   2.04054341449902E-19
      1.54316147842183E-15   0.00000000000000E+00   0.00000000000000E+00   0.00000000000000E+00   0.00000000000000E+00
     -1.75765535720756E-19  -5.63537474103905E-27  -1.75765541356131E-19   1.54316147842183E-15   1.00000000000000E+00
      1.00000000000000E+00   0.00000000000000E+00   0.00000000000000E+00   0.00000000000000E+00   0.00000000000000E+00
      0.00000000000000E+00   9.52044941170505E-16
      1.00000000000000E-02
      0.00000000000000E+00   0.00000000000000E+00   0.00000000000000E+00   0.00000000000000E+00   8.25531921505953E-17
     -3.05076684403797E-17   5.20455237102157E-17  -4.07231675677573E-15   0.00000000000000E+00   0.00000000000000E+00
      0.00000000000000E+00   0.00000000000000E+00  -7.57484794016182E-16   5.49703822550855E-27  -7.57484794010685E-16
      1.54316147841554E-15   3.00000000000000E-02   3.00000000000000E-02   0.00000000000000E+00   0.00000000000000E+00
      7.05414530870814E-16   2.47394296552253E-20   7.05439270300469E-16   1.58045874630938E-15   1.00000000000000E+00
      1.00000000000000E+00   0.00000000000000E+00   0.00000000000000E+00   0.00000000000000E+00   0.00000000000000E+00
      0.00000000000000E+00   9.48696532050814E-16
      2.33333333333333E-02
      0.00000000000000E+00   0.00000000000000E+00   0.00000000000000E+00   0.00000000000000E+00  -9.59474248257634E-19
     -6.23119449888298E-17  -6.32714192370874E-17  -4.11689388885021E-15   0.00000000000000E+00   0.00000000000000E+00
      0.00000000000000E+00   0.00000000000000E+00  -9.93546974997734E-16  -1.00560411306531E-26  -9.93546975007790E-16
      1.54316147840737E-15   7.00000000000000E-02   7.00000000000000E-02   0.00000000000000E+00   0.00000000000000E+00
      1.05678626975730E-15   3.21244875750596E-20   1.05681839424488E-15   1.62939573904294E-15   1.00000000000000E+00
      1.00000000000000E+00   0.00000000000000E+00   0.00000000000000E+00   0.00000000000000E+00   0.00000000000000E+00
      0.00000000000000E+00   9.44336671399911E-16
      4.24444444444445E-02
      0.00000000000000E+00   0.00000000000000E+00   0.00000000000000E+00   0.00000000000000E+00  -1.25682832485143E-16
     -1.11576401796852E-16  -2.37259234281994E-16  -4.17936680002280E-15   0.00000000000000E+00   0.00000000000000E+00
      0.00000000000000E+00   0.00000000000000E+00  -1.02802736020146E-15  -5.56167817876412E-27  -1.02802736020702E-15
      1.54316147839597E-15   1.27333333333333E-01   1.27333333333333E-01   0.00000000000000E+00   0.00000000000000E+00
      1.26526440461070E-15   2.21898783091497E-20   1.26528659448901E-15   1.69792910964769E-15   1.00000000000000E+00
      1.00000000000000E+00   0.00000000000000E+00   0.00000000000000E+00   0.00000000000000E+00   0.00000000000000E+00
      0.00000000000000E+00   9.38276211979134E-16
      6.74444444444444E-02
      0.00000000000000E+00   0.00000000000000E+00   0.00000000000000E+00   0.00000000000000E+00  -4.05330093840000E-19
     -2.17681331125653E-16  -2.18086661219493E-16  -4.25850339173582E-15   0.00000000000000E+00   0.00000000000000E+00
      0.00000000000000E+00   0.00000000000000E+00  -1.03208702795114E-15   1.02127433085764E-26  -1.03208702794093E-15
      1.54316147838142E-15   2.02333333333333E-01   2.02333333333333E-01   0.00000000000000E+00   0.00000000000000E+00
      1.25016801467659E-15   5.67448383379916E-21   1.25017368916043E-15   1.78472683454218E-15   1.00000000000000E+00
      1.00000000000000E+00   0.00000000000000E+00   0.00000000000000E+00   0.00000000000000E+00   0.00000000000000E+00
      0.00000000000000E+00   9.30615078812229E-16
      9.24444444444444E-02
      0.00000000000000E+00   0.00000000000000E+00   0.00000000000000E+00   0.00000000000000E+00  -2.84125785193248E-19
     -3.50415716405171E-16  -3.50699842190364E-16  -4.33490848247707E-15   0.00000000000000E+00   0.00000000000000E+00
      0.00000000000000E+00   0.00000000000000E+00  -1.03709494845654E-15   6.66121553611989E-27  -1.03709494844987E-15
      1.54316147836700E-15   2.77333333333333E-01   2.77333333333333E-01   0.00000000000000E+00   0.00000000000000E+00
      1.38775883985672E-15   3.59507835172073E-20   1.38779479064024E-15   1.86859754584108E-15   1.00000000000000E+00
      1.00000000000000E+00   0.00000000000000E+00   0.00000000000000E+00   0.00000000000000E+00   0.00000000000000E+00
      0.00000000000000E+00   9.23149458269000E-16
      1.17444444444444E-01
      0.00000000000000E+00   0.00000000000000E+00   0.00000000000000E+00   0.00000000000000E+00   6.18064065116419E-20
     -4.38054762238033E-16  -4.37992955831521E-16  -4.40916219558878E-15   0.00000000000000E+00   0.00000000000000E+00
      0.00000000000000E+00   0.00000000000000E+00  -1.04192287089596E-15  -8.56329463095223E-27  -1.04192287090452E-15
      1.54316147835254E-15   3.52333333333333E-01   3.52333333333333E-01   0.00000000000000E+00   0.00000000000000E+00
      1.47987951559777E-15   3.63111382744615E-20   1.47991582673604E-15   1.95020576290450E-15   1.00000000000000E+00
      1.00000000000000E+00   0.00000000000000E+00   0.00000000000000E+00   0.00000000000000E+00   0.00000000000000E+00
      0.00000000000000E+00   9.15794954331739E-16
      1.42444444444444E-01
      0.00000000000000E+00   0.00000000000000E+00   0.00000000000000E+00   0.00000000000000E+00   4.18087126149700E-19
     -4.84359525400122E-16  -4.83941438273972E-16  -4.48192415472867E-15   0.00000000000000E+00   0.00000000000000E+00
      0.00000000000000E+00   0.00000000000000E+00  -1.04663428933230E-15  -1.30239131124918E-26  -1.04663428934532E-15
      1.54316147833793E-15   4.27333333333333E-01   4.27333333333333E-01   0.00000000000000E+00   0.00000000000000E+00
      1.53053885583956E-15   3.68717797289986E-20   1.53057572761929E-15   2.03024766986356E-15   1.00000000000000E+00
      1.00000000000000E+00   0.00000000000000E+00   0.00000000000000E+00   0.00000000000000E+00   0.00000000000000E+00
      0.00000000000000E+00   9.08515006527184E-16
      1.67444444444444E-01
      0.00000000000000E+00   0.00000000000000E+00   0.00000000000000E+00   0.00000000000000E+00   3.57378721466900E-20
     -5.20451324718942E-16  -5.20415586846795E-16  -4.55366800736309E-15   0.00000000000000E+00   0.00000000000000E+00
      0.00000000000000E+00   0.00000000000000E+00  -1.05048861217791E-15  -8.78198435982358E-27  -1.05048861218669E-15
      1.54316147832315E-15   5.02333333333333E-01   5.02333333333333E-01   0.00000000000000E+00   0.00000000000000E+00
      1.57086734350267E-15   3.68555308142023E-20   1.57090419903349E-15   2.10920348310600E-15   1.00000000000000E+00
      1.00000000000000E+00   0.00000000000000E+00   0.00000000000000E+00   0.00000000000000E+00   0.00000000000000E+00
      0.00000000000000E+00   9.01303045933931E-16
      1.92444444444444E-01
      0.00000000000000E+00   0.00000000000000E+00   0.00000000000000E+00   0.00000000000000E+00  -1.81528322341748E-19
     -5.52776078920313E-16  -5.52957607242654E-16  -4.62465478661471E-15   0.00000000000000E+00   0.00000000000000E+00
      0.00000000000000E+00   0.00000000000000E+00  -1.05436613450716E-15  -6.42045323649461E-27  -1.05436613451358E-15
      1.54316147830822E-15   5.77333333333333E-01   5.77333333333333E-01   0.00000000000000E+00   0.00000000000000E+00
      1.60728690381011E-15   3.68379461226674E-20   1.60732374175623E-15   2.18732715002183E-15   1.00000000000000E+00
      1.00000000000000E+00   0.00000000000000E+00   0.00000000000000E+00   0.00000000000000E+00   0.00000000000000E+00
      0.00000000000000E+00   8.94166158284666E-16
      2.17444444444444E-01
      0.00000000000000E+00   0.00000000000000E+00   0.00000000000000E+00   0.00000000000000E+00  -1.88970856271019E-19
     -5.83762717677293E-16  -5.83951688533564E-16  -4.69500329399149E-15   0.00000000000000E+00   0.00000000000000E+00
      0.00000000000000E+00   0.00000000000000E+00  -1.05831771936057E-15   8.56827342550519E-27  -1.05831771935200E-15
      1.54316147829319E-15   6.52333333333333E-01   6.52333333333333E-01   0.00000000000000E+00   0.00000000000000E+00
      1.64223258872130E-15   3.68191642658371E-20   1.64226940788557E-15   2.26472585314045E-15   1.00000000000000E+00
      1.00000000000000E+00   0.00000000000000E+00   0.00000000000000E+00   0.00000000000000E+00   0.00000000000000E+00
      0.00000000000000E+00   8.87115962557865E-16
      2.42444444444444E-01
      0.00000000000000E+00   0.00000000000000E+00   0.00000000000000E+00   0.00000000000000E+00   4.28714673284271E-19
     -6.16715445953307E-16  -6.16286731280023E-16  -4.76475522338822E-15   0.00000000000000E+00   0.00000000000000E+00
      0.00000000000000E+00   0.00000000000000E+00  -1.06275998405688E-15  -2.48256022972976E-27  -1.06275998405936E-15
      1.54316147827808E-15   7.27333333333333E-01   7.27333333333333E-01   0.00000000000000E+00   0.00000000000000E+00
      1.67900991527693E-15   3.68000624555676E-20   1.67904671533939E-15   2.34143240507658E-15   1.00000000000000E+00
      1.00000000000000E+00   0.00000000000000E+00   0.00000000000000E+00   0.00000000000000E+00   0.00000000000000E+00
      0.00000000000000E+00   8.80161340033562E-16
      2.67444444444444E-01
      0.00000000000000E+00   0.00000000000000E+00   0.00000000000000E+00   0.00000000000000E+00  -2.23180657934341E-19
     -6.53662304595489E-16  -6.53885485253423E-16  -4.83391915413952E-15   0.00000000000000E+00   0.00000000000000E+00
      0.00000000000000E+00   0.00000000000000E+00  -1.06580508453273E-15   4.96437862321130E-27  -1.06580508452777E-15
      1.54316147826292E-15   8.02333333333333E-01   8.02333333333333E-01   0.00000000000000E+00   0.00000000000000E+00
      1.71965378820293E-15   3.67815782611186E-20   1.71969056978119E-15   2.41745719285886E-15   1.00000000000000E+00
      1.00000000000000E+00   0.00000000000000E+00   0.00000000000000E+00   0.00000000000000E+00   0.00000000000000E+00
      0.00000000000000E+00   8.73300483017751E-16
      2.92444444444444E-01
      0.00000000000000E+00   0.00000000000000E+00   0.00000000000000E+00   0.00000000000000E+00  -3.42156879184458E-19
     -6.99694071339825E-16  -7.00036228219009E-16  -4.90249541449678E-15   0.00000000000000E+00   0.00000000000000E+00
      0.00000000000000E+00   0.00000000000000E+00  -1.06927340023928E-15  -1.81987968189533E-27  -1.06927340024110E-15
      1.54316147824766E-15   8.77333333333333E-01   8.77333333333334E-01   0.00000000000000E+00   0.00000000000000E+00
      1.76927286345025E-15   3.67650098594339E-20   1.76930962846011E-15   2.49281731806616E-15   1.00000000000000E+00
      1.00000000000000E+00   0.00000000000000E+00   0.00000000000000E+00   0.00000000000000E+00   0.00000000000000E+00
      0.00000000000000E+00   8.66516618182961E-16
      3.17444444444444E-01
      0.00000000000000E+00   0.00000000000000E+00   0.00000000000000E+00   0.00000000000000E+00   9.36802861438971E-20
     -7.60487748347750E-16  -7.60394068061606E-16  -4.97048168472990E-15   0.00000000000000E+00   0.00000000000000E+00
      0.00000000000000E+00   0.00000000000000E+00  -1.07321113365291E-15   8.20492597789546E-27  -1.07321113364470E-15
      1.54316147823222E-15   9.52333333333333E-01   9.52333333333333E-01   0.00000000000000E+00   0.00000000000000E+00
      1.83356844949361E-15   3.67522127018719E-20   1.83360520170631E-15   2.56753672033139E-15   1.00000000000000E+00
      1.00000000000000E+00   0.00000000000000E+00   0.00000000000000E+00   0.00000000000000E+00   0.00000000000000E+00
      0.00000000000000E+00   8.59783486166297E-16
      3.42444444444444E-01
      0.00000000000000E+00   0.00000000000000E+00   0.00000000000000E+00   0.00000000000000E+00  -5.09891177436691E-19
     -8.40196493270503E-16  -8.40706384447939E-16  -5.03786416507273E-15   0.00000000000000E+00   0.00000000000000E+00
      0.00000000000000E+00   0.00000000000000E+00  -1.07604964224773E-15  -1.24205479489245E-26  -1.07604964226015E-15
      1.54316147821653E-15   1.02733333333333E+00   1.02733333333333E+00   0.00000000000000E+00   0.00000000000000E+00
      1.91671928243437E-15   3.67442737197700E-20   1.91675602670809E-15   2.64162647431723E-15   1.00000000000000E+00
      1.00000000000000E+00   0.00000000000000E+00   0.00000000000000E+00   0.00000000000000E+00   0.00000000000000E+00
      0.00000000000000E+00   8.53076212538967E-16
      3.67444444444445E-01
      0.00000000000000E+00   0.00000000000000E+00   0.00000000000000E+00   0.00000000000000E+00  -6.05769653317004E-19
     -9.40892084883507E-16  -9.41497854536824E-16  -5.10460342612135E-15   0.00000000000000E+00   0.00000000000000E+00
      0.00000000000000E+00   0.00000000000000E+00  -1.07932745190765E-15   1.65369994456293E-28  -1.07932745190749E-15
      1.54316147820054E-15   1.10233333333333E+00   1.10233333333333E+00   0.00000000000000E+00   0.00000000000000E+00
      2.02078856563045E-15   3.67408138602106E-20   2.02082530644431E-15   2.71506439208779E-15   1.00000000000000E+00
      1.00000000000000E+00   0.00000000000000E+00   0.00000000000000E+00   0.00000000000000E+00   0.00000000000000E+00
      0.00000000000000E+00   8.46377555833028E-16
      3.92444444444445E-01
      0.00000000000000E+00   0.00000000000000E+00   0.00000000000000E+00   0.00000000000000E+00  -8.35772649618545E-20
     -1.06596407673158E-15  -1.06604765399654E-15  -5.17062116819216E-15   0.00000000000000E+00   0.00000000000000E+00
      0.00000000000000E+00   0.00000000000000E+00  -1.08317692213534E-15   9.35203209757770E-28  -1.08317692213441E-15
      1.54316147818420E-15   1.17733333333333E+00   1.17733333333333E+00   0.00000000000000E+00   0.00000000000000E+00
      2.14918783502329E-15   3.67411076583167E-20   2.14922457613095E-15   2.78778194881588E-15   1.00000000000000E+00
      1.00000000000000E+00   0.00000000000000E+00   0.00000000000000E+00   0.00000000000000E+00   0.00000000000000E+00
      0.00000000000000E+00   8.39677741192073E-16
      4.17444444444445E-01
      0.00000000000000E+00   0.00000000000000E+00   0.00000000000000E+00   0.00000000000000E+00   7.13958566598534E-20
     -1.21590428961410E-15  -1.21583289375744E-15  -5.23579168101613E-15   0.00000000000000E+00   0.00000000000000E+00
      0.00000000000000E+00   0.00000000000000E+00  -1.08666271387064E-15   6.06666197789195E-27  -1.08666271386457E-15
      1.54316147816751E-15   1.25233333333333E+00   1.25233333333333E+00   0.00000000000000E+00   0.00000000000000E+00
      2.30245886305646E-15   3.67445655542443E-20   2.30249560762201E-15   2.85965830024437E-15   1.00000000000000E+00
      1.00000000000000E+00   0.00000000000000E+00   0.00000000000000E+00   0.00000000000000E+00   0.00000000000000E+00
      0.00000000000000E+00   8.32971902604255E-16
      4.42444444444445E-01
      0.00000000000000E+00   0.00000000000000E+00   0.00000000000000E+00   0.00000000000000E+00  -3.18193047737768E-20
     -1.36940469453151E-15  -1.36943651383628E-15  -5.29994249921930E-15   0.00000000000000E+00   0.00000000000000E+00
      0.00000000000000E+00   0.00000000000000E+00  -1.08982170478768E-15   5.01615141970283E-27  -1.08982170478267E-15
      1.54316147815047E-15   1.32733333333333E+00   1.32733333333333E+00   0.00000000000000E+00   0.00000000000000E+00
      2.45922146827615E-15   3.67503428041081E-20   2.45925821861895E-15   2.93052317248476E-15   1.00000000000000E+00
      1.00000000000000E+00   0.00000000000000E+00   0.00000000000000E+00   0.00000000000000E+00   0.00000000000000E+00
      0.00000000000000E+00   8.26257848584076E-16
      4.67444444444445E-01
      0.00000000000000E+00   0.00000000000000E+00   0.00000000000000E+00   0.00000000000000E+00  -3.74873452531891E-19
     -1.49103990335884E-15  -1.49141477681137E-15  -5.36287400558989E-15   0.00000000000000E+00   0.00000000000000E+00
      0.00000000000000E+00   0.00000000000000E+00  -1.09272495200452E-15  -2.17031969987259E-27  -1.09272495200669E-15
      1.54316147813307E-15   1.40233333333333E+00   1.40233333333333E+00   0.00000000000000E+00   0.00000000000000E+00
      2.58410297124981E-15   3.67575682494759E-20   2.58413972881806E-15   3.00017782123655E-15   1.00000000000000E+00
      1.00000000000000E+00   0.00000000000000E+00   0.00000000000000E+00   0.00000000000000E+00   0.00000000000000E+00
      0.00000000000000E+00   8.19534706220264E-16
      4.92444444444445E-01
      0.00000000000000E+00   0.00000000000000E+00   0.00000000000000E+00   0.00000000000000E+00  -1.87941513694466E-19
     -1.56886005064259E-15  -1.56904799215628E-15  -5.42441289160397E-15   0.00000000000000E+00   0.00000000000000E+00
      0.00000000000000E+00   0.00000000000000E+00  -1.09611831355706E-15   5.17980310494698E-28  -1.09611831355655E-15
      1.54316147811533E-15   1.47733333333333E+00   1.47733333333333E+00   0.00000000000000E+00   0.00000000000000E+00
      2.66512954021817E-15   3.67654946591073E-20   2.66516630571283E-15   3.06844919637370E-15   1.00000000000000E+00
      1.00000000000000E+00   0.00000000000000E+00   0.00000000000000E+00   0.00000000000000E+00   0.00000000000000E+00
      0.00000000000000E+00   8.12802217114940E-16
      5.17444444444445E-01
      0.00000000000000E+00   0.00000000000000E+00   0.00000000000000E+00   0.00000000000000E+00   8.06109941045248E-20
     -1.61635331208645E-15  -1.61627270109234E-15  -5.48449748340480E-15   0.00000000000000E+00   0.00000000000000E+00
      0.00000000000000E+00   0.00000000000000E+00  -1.09956082116974E-15  -4.94736028559156E-27  -1.09956082117469E-15
      1.54316147809724E-15   1.55233333333333E+00   1.55233333333333E+00   0.00000000000000E+00   0.00000000000000E+00
      2.71579674868345E-15   3.67735835767544E-20   2.71583352226703E-15   3.13527560154044E-15   1.00000000000000E+00
      1.00000000000000E+00   0.00000000000000E+00   0.00000000000000E+00   0.00000000000000E+00   0.00000000000000E+00
      0.00000000000000E+00   8.06060403767137E-16
      5.42444444444445E-01
      0.00000000000000E+00   0.00000000000000E+00   0.00000000000000E+00   0.00000000000000E+00  -2.27244550443662E-19
     -1.64885424064776E-15  -1.64908148519821E-15  -5.54324085051520E-15   0.00000000000000E+00   0.00000000000000E+00
      0.00000000000000E+00   0.00000000000000E+00  -1.10239653389375E-15  -1.22420654914135E-27  -1.10239653389498E-15
      1.54316147807877E-15   1.62733333333333E+00   1.62733333333333E+00   0.00000000000000E+00   0.00000000000000E+00
      2.75144123757201E-15   3.67815211733988E-20   2.75147801909318E-15   3.20076994828910E-15   1.00000000000000E+00
      1.00000000000000E+00   0.00000000000000E+00   0.00000000000000E+00   0.00000000000000E+00   0.00000000000000E+00
      0.00000000000000E+00   7.99309424147334E-16
      5.67444444444445E-01
      0.00000000000000E+00   0.00000000000000E+00   0.00000000000000E+00   0.00000000000000E+00   1.50314253966292E-19
     -1.67414037984653E-15  -1.67399006559256E-15  -5.60089853350556E-15   0.00000000000000E+00   0.00000000000000E+00
      0.00000000000000E+00   0.00000000000000E+00  -1.10588853878507E-15   8.71540435917251E-27  -1.10588853877636E-15
      1.54316147805993E-15   1.70233333333333E+00   1.70233333333333E+00   0.00000000000000E+00   0.00000000000000E+00
      2.77984181519771E-15   3.67891712060011E-20   2.77987860436891E-15   3.26518754058535E-15   1.00000000000000E+00
      1.00000000000000E+00   0.00000000000000E+00   0.00000000000000E+00   0.00000000000000E+00   0.00000000000000E+00
      0.00000000000000E+00   7.92549514860287E-16
      5.92444444444445E-01
      0.00000000000000E+00   0.00000000000000E+00   0.00000000000000E+00   0.00000000000000E+00   4.46449638391336E-19
     -1.69427414944301E-15  -1.69382769980462E-15  -5.65775873015698E-15   0.00000000000000E+00   0.00000000000000E+00
      0.00000000000000E+00   0.00000000000000E+00  -1.10927064877541E-15   3.93129371892218E-28  -1.10927064877501E-15
      1.54316147804071E-15   1.77733333333333E+00   1.77733333333333E+00   0.00000000000000E+00   0.00000000000000E+00
      2.80306155208377E-15   3.67964958655074E-20   2.80309834857964E-15   3.32881627997509E-15   1.00000000000000E+00
      1.00000000000000E+00   0.00000000000000E+00   0.00000000000000E+00   0.00000000000000E+00   0.00000000000000E+00
      0.00000000000000E+00   7.85780972141178E-16
      6.17444444444445E-01
      0.00000000000000E+00   0.00000000000000E+00   0.00000000000000E+00   0.00000000000000E+00  -5.08160570371607E-20
     -1.71025843747670E-15  -1.71030925353374E-15  -5.71405335909465E-15   0.00000000000000E+00   0.00000000000000E+00
      0.00000000000000E+00   0.00000000000000E+00  -1.11183181041588E-15  -5.01507014565399E-27  -1.11183181042089E-15
      1.54316147802111E-15   1.85233333333333E+00   1.85233333333333E+00   0.00000000000000E+00   0.00000000000000E+00
      2.82210426045782E-15   3.68034968081135E-20   2.82214106395463E-15   3.39188773458522E-15   1.00000000000000E+00
      1.00000000000000E+00   0.00000000000000E+00   0.00000000000000E+00   0.00000000000000E+00   0.00000000000000E+00
      0.00000000000000E+00   7.79004146488333E-16
      6.42444444444445E-01
      0.00000000000000E+00   0.00000000000000E+00   0.00000000000000E+00   0.00000000000000E+00  -1.22201086298164E-19
     -1.72372537802147E-15  -1.72384757910777E-15  -5.76993633662699E-15   0.00000000000000E+00   0.00000000000000E+00
      0.00000000000000E+00   0.00000000000000E+00  -1.11479206952637E-15   3.70340576865686E-27  -1.11479206952266E-15
      1.54316147800112E-15   1.92733333333333E+00   1.92733333333333E+00   0.00000000000000E+00   0.00000000000000E+00
      2.83860283844298E-15   3.68101874518904E-20   2.83863964863043E-15   3.45455542011996E-15   1.00000000000000E+00
      1.00000000000000E+00   0.00000000000000E+00   0.00000000000000E+00   0.00000000000000E+00   0.00000000000000E+00
      0.00000000000000E+00   7.72219438505913E-16
      6.67444444444445E-01
      0.00000000000000E+00   0.00000000000000E+00   0.00000000000000E+00   0.00000000000000E+00   2.70415414523933E-19
     -1.73625561662081E-15  -1.73598520120629E-15  -5.82550138985322E-15   0.00000000000000E+00   0.00000000000000E+00
      0.00000000000000E+00   0.00000000000000E+00  -1.11819022177487E-15   3.38970091824202E-27  -1.11819022177148E-15
      1.54316147798075E-15   2.00233333333333E+00   2.00233333333333E+00   0.00000000000000E+00   0.00000000000000E+00
      2.85413860639419E-15   3.68165835778793E-20   2.85417542297776E-15   3.51691262599925E-15   1.00000000000000E+00
      1.00000000000000E+00   0.00000000000000E+00   0.00000000000000E+00   0.00000000000000E+00   0.00000000000000E+00
      0.00000000000000E+00   7.65427285873215E-16
      6.92444444444445E-01
      0.00000000000000E+00   0.00000000000000E+00   0.00000000000000E+00   0.00000000000000E+00  -1.31309592918563E-19
     -1.74911304969925E-15  -1.74924435929216E-15  -5.88080489774073E-15   0.00000000000000E+00   0.00000000000000E+00
      0.00000000000000E+00   0.00000000000000E+00  -1.12076845802749E-15  -5.56391299072535E-27  -1.12076845803305E-15
      1.54316147795974E-15   2.07733333333333E+00   2.07733333333333E+00   0.00000000000000E+00   0.00000000000000E+00
      2.86997600890789E-15   3.68084173321324E-20   2.87001281732522E-15   3.57901528658116E-15   1.00000000000000E+00
      1.00000000000000E+00   0.00000000000000E+00   0.00000000000000E+00   0.00000000000000E+00   0.00000000000000E+00
      0.00000000000000E+00   7.58628133199834E-16
      7.17444444444445E-01
      0.00000000000000E+00   0.00000000000000E+00   0.00000000000000E+00   0.00000000000000E+00   1.14376941884858E-19
     -1.76300780556694E-15  -1.76289342862505E-15  -5.93588112063814E-15   0.00000000000000E+00   0.00000000000000E+00
      0.00000000000000E+00   0.00000000000000E+00  -1.12396942062749E-15   1.01546026114687E-27  -1.12396942062647E-15
      1.54316147793871E-15   2.15233333333333E+00   2.15233333333333E+00   0.00000000000000E+00   0.00000000000000E+00
      2.88682609697393E-15   3.67522776046897E-20   2.88686284925153E-15   3.64089725807002E-15   1.00000000000000E+00
      1.00000000000000E+00   0.00000000000000E+00   0.00000000000000E+00   0.00000000000000E+00   0.00000000000000E+00
      0.00000000000000E+00   7.51822384629401E-16
      7.42444444444445E-01
      0.00000000000000E+00   0.00000000000000E+00   0.00000000000000E+00   0.00000000000000E+00   7.99827488489716E-20
     -1.77790160954984E-15  -1.77782162680099E-15  -5.99075044783230E-15   0.00000000000000E+00   0.00000000000000E+00
      0.00000000000000E+00   0.00000000000000E+00  -1.12686607434368E-15  -8.67217221415347E-27  -1.12686607435235E-15
      1.54316147791721E-15   2.22733333333333E+00   2.22733333333333E+00   0.00000000000000E+00   0.00000000000000E+00
      2.90465092044492E-15   3.67807084203749E-20   2.90468770115334E-15   3.70257861850063E-15   1.00000000000000E+00
      1.00000000000000E+00   0.00000000000000E+00   0.00000000000000E+00   0.00000000000000E+00   0.00000000000000E+00
      0.00000000000000E+00   7.45010351414461E-16
      7.67444444444445E-01
      0.00000000000000E+00   0.00000000000000E+00   0.00000000000000E+00   0.00000000000000E+00   1.61904208620848E-19
     -1.79315938903933E-15  -1.79299748483071E-15  -6.04542392071111E-15   0.00000000000000E+00   0.00000000000000E+00
      0.00000000000000E+00   0.00000000000000E+00  -1.12985570325724E-15   1.36734174814645E-27  -1.12985570325587E-15
      1.54316147789525E-15   2.30233333333333E+00   2.30233333333333E+00   0.00000000000000E+00   0.00000000000000E+00
      2.92281635967967E-15   3.68284069073039E-20   2.92285318808658E-15   3.76407022796177E-15   1.00000000000000E+00
      1.00000000000000E+00   0.00000000000000E+00   0.00000000000000E+00   0.00000000000000E+00   0.00000000000000E+00
      0.00000000000000E+00   7.38192214854089E-16
      7.92444444444445E-01
      0.00000000000000E+00   0.00000000000000E+00   0.00000000000000E+00   0.00000000000000E+00   1.44986590698469E-19
     -1.80789171906496E-15  -1.80774673247426E-15  -6.09990625095265E-15   0.00000000000000E+00   0.00000000000000E+00
      0.00000000000000E+00   0.00000000000000E+00  -1.13272410564763E-15   7.36766539991278E-28  -1.13272410564689E-15
      1.54316147787286E-15   2.37733333333333E+00   2.37733333333333E+00   0.00000000000000E+00   0.00000000000000E+00
      2.94043399418403E-15   3.68439371204636E-20   2.94047083812115E-15   3.82537675150591E-15   1.00000000000000E+00
      1.00000000000000E+00   0.00000000000000E+00   0.00000000000000E+00   0.00000000000000E+00   0.00000000000000E+00
      0.00000000000000E+00   7.31368021573865E-16
      8.17444444444445E-01
      0.00000000000000E+00   0.00000000000000E+00   0.00000000000000E+00   0.00000000000000E+00  -3.27129997904033E-19
     -1.82151008195416E-15  -1.82183721195206E-15  -6.15419837121327E-15   0.00000000000000E+00   0.00000000000000E+00
      0.00000000000000E+00   0.00000000000000E+00  -1.13511595184993E-15  -1.44722868339865E-26  -1.13511595186440E-15
      1.54316147785008E-15   2.45233333333333E+00   2.45233333333333E+00   0.00000000000000E+00   0.00000000000000E+00
      2.95691631417768E-15   3.68496387841649E-20   2.95695316381647E-15   3.88649917924931E-15   1.00000000000000E+00
      1.00000000000000E+00   0.00000000000000E+00   0.00000000000000E+00   0.00000000000000E+00   0.00000000000000E+00
      0.00000000000000E+00   7.24537714113876E-16
      8.42444444444445E-01
      0.00000000000000E+00   0.00000000000000E+00   0.00000000000000E+00   0.00000000000000E+00   2.11024311199800E-19
     -1.83513991479105E-15  -1.83492889047985E-15  -6.20829968923989E-15   0.00000000000000E+00   0.00000000000000E+00
      0.00000000000000E+00   0.00000000000000E+00  -1.13849775757361E-15   4.43075991463908E-27  -1.13849775756918E-15
      1.54316147782693E-15   2.52733333333333E+00   2.52733333333333E+00   0.00000000000000E+00   0.00000000000000E+00
      2.97338979417541E-15   3.68538736225498E-20   2.97342664804903E-15   3.94743702733116E-15   1.00000000000000E+00
      1.00000000000000E+00   0.00000000000000E+00   0.00000000000000E+00   0.00000000000000E+00   0.00000000000000E+00
      0.00000000000000E+00   7.17701184081805E-16
      8.67444444444445E-01
      0.00000000000000E+00   0.00000000000000E+00   0.00000000000000E+00   0.00000000000000E+00  -2.68257701379651E-19