DF-ISE text

Info {
  version   = 1.0
  type      = xyplot
  datasets  = [
    "time"
    "substrate OuterVoltage" "substrate InnerVoltage" "substrate QuasiFermiPotential" "substrate DisplacementCurrent" "substrate eCurrent"
    "substrate hCurrent" "substrate TotalCurrent" "substrate Charge" "source OuterVoltage" "source InnerVoltage"
    "source QuasiFermiPotential" "source DisplacementCurrent" "source eCurrent" "source hCurrent" "source TotalCurrent"
    "source Charge" "drain OuterVoltage" "drain InnerVoltage" "drain QuasiFermiPotential" "drain DisplacementCurrent"
    "drain eCurrent" "drain hCurrent" "drain TotalCurrent" "drain Charge" "gate OuterVoltage"
    "gate InnerVoltage" "gate QuasiFermiPotential" "gate DisplacementCurrent" "gate eCurrent" "gate hCurrent"
    "gate TotalCurrent" "gate Charge" ]
  functions = [
    Time
    OuterVoltage InnerVoltage QuasiFermiPotential DisplacementCurrent eCurrent
    hCurrent TotalCurrent Charge OuterVoltage InnerVoltage
    QuasiFermiPotential DisplacementCurrent eCurrent hCurrent TotalCurrent
    Charge OuterVoltage InnerVoltage QuasiFermiPotential DisplacementCurrent
    eCurrent hCurrent TotalCurrent Charge OuterVoltage
    InnerVoltage QuasiFermiPotential DisplacementCurrent eCurrent hCurrent
    TotalCurrent Charge ]
}

Data {
      0.00000000000000E+00
      0.00000000000000E+00   0.00000000000000E+00   0.00000000000000E+00   0.00000000000000E+00  -7.44986027804576E-35
      1.18041023561562E-17   1.18041023561562E-17   2.62944992996604E-17   0.00000000000000E+00   0.00000000000000E+00
      0.00000000000000E+00   0.00000000000000E+00   3.90487207606346E-34   2.25548356311292E-17   2.25548356311292E-17
     -1.97717129877812E-15   0.00000000000000E+00   0.00000000000000E+00   0.00000000000000E+00   0.00000000000000E+00
     -6.29772741731526E-35  -3.43589379872853E-17  -3.43589379872853E-17  -1.69584370826039E-15   3.00000000000000E+00
      3.00000000000000E+00   0.00000000000000E+00   0.00000000000000E+00   0.00000000000000E+00   0.00000000000000E+00
      0.00000000000000E+00   3.64672050773885E-15
      1.00000000000000E-02
      0.00000000000000E+00   0.00000000000000E+00   0.00000000000000E+00   0.00000000000000E+00  -2.13780397564741E-20
     -2.52166111214762E-05  -2.52166111214762E-05   2.62722582829572E-17   0.00000000000000E+00   0.00000000000000E+00
      0.00000000000000E+00   0.00000000000000E+00  -1.71535005922632E-20  -3.58184796038985E-05  -3.58184796038985E-05
     -1.97105666003425E-15   3.00000000000000E-02   3.00000000000000E-02   0.00000000000000E+00   0.00000000000000E+00
      2.89803382815285E-20   6.10350907253746E-05   6.10350907253747E-05  -1.69040862552523E-15   3.00000000000000E+00
      3.00000000000000E+00   0.00000000000000E+00   0.00000000000000E+00   0.00000000000000E+00   0.00000000000000E+00
      0.00000000000000E+00   3.63519302727652E-15
      2.36666666666667E-02
      0.00000000000000E+00   0.00000000000000E+00   0.00000000000000E+00   0.00000000000000E+00  -6.17740475878318E-20
     -5.96023312399110E-05  -5.96023312399111E-05   2.62419369276776E-17   0.00000000000000E+00   0.00000000000000E+00
      0.00000000000000E+00   0.00000000000000E+00  -4.07714527485776E-20  -8.47470770465698E-05  -8.47470770465699E-05
     -1.96271251436898E-15   7.10000000000000E-02   7.10000000000000E-02   0.00000000000000E+00   0.00000000000000E+00
      6.77578712697860E-20   1.44349408286481E-04   1.44349408286481E-04  -1.68299165159901E-15   3.00000000000000E+00
      3.00000000000000E+00   0.00000000000000E+00   0.00000000000000E+00   0.00000000000000E+00   0.00000000000000E+00
      0.00000000000000E+00   3.61946222904032E-15
      4.37111111111111E-02
      0.00000000000000E+00   0.00000000000000E+00   0.00000000000000E+00   0.00000000000000E+00  -1.49637073764284E-19
     -1.09865181047363E-04  -1.09865181047363E-04   2.61976300844358E-17   0.00000000000000E+00   0.00000000000000E+00
      0.00000000000000E+00   0.00000000000000E+00  -7.56756033174311E-20  -1.56462540903034E-04  -1.56462540903034E-04
     -1.95049985655196E-15   1.31133333333333E-01   1.31133333333333E-01   0.00000000000000E+00   0.00000000000000E+00
      1.22582188043040E-19   2.66327721950397E-04   2.66327721950397E-04  -1.67213570850828E-15   3.00000000000000E+00
      3.00000000000000E+00   0.00000000000000E+00   0.00000000000000E+00   0.00000000000000E+00   0.00000000000000E+00
      0.00000000000000E+00   3.59643793497580E-15
      6.87111111111111E-02
      0.00000000000000E+00   0.00000000000000E+00   0.00000000000000E+00   0.00000000000000E+00  -3.06682067236966E-19
     -1.72263878887735E-04  -1.72263878887736E-04   2.61426513218542E-17   0.00000000000000E+00   0.00000000000000E+00
      0.00000000000000E+00   0.00000000000000E+00  -1.19447873395132E-19  -2.45836202057592E-04  -2.45836202057592E-04
     -1.93530875856364E-15   2.06133333333333E-01   2.06133333333333E-01   0.00000000000000E+00   0.00000000000000E+00
      1.87259195072444E-19   4.18100080945327E-04   4.18100080945328E-04  -1.65863171710585E-15   3.00000000000000E+00
      3.00000000000000E+00   0.00000000000000E+00   0.00000000000000E+00   0.00000000000000E+00   0.00000000000000E+00
      0.00000000000000E+00   3.56779782434763E-15
      9.37111111111111E-02
      0.00000000000000E+00   0.00000000000000E+00   0.00000000000000E+00   0.00000000000000E+00  -4.93755790175058E-19
     -2.34336541578041E-04  -2.34336541578041E-04   2.60879892693864E-17   0.00000000000000E+00   0.00000000000000E+00
      0.00000000000000E+00   0.00000000000000E+00  -1.63260291586986E-19  -3.35138420029680E-04  -3.35138420029680E-04
     -1.92016095208636E-15   2.81133333333333E-01   2.81133333333333E-01   0.00000000000000E+00   0.00000000000000E+00
      2.47983525907765E-19   5.69474961607721E-04   5.69474961607721E-04  -1.64516570403999E-15   3.00000000000000E+00
      3.00000000000000E+00   0.00000000000000E+00   0.00000000000000E+00   0.00000000000000E+00   0.00000000000000E+00
      0.00000000000000E+00   3.53923866685696E-15
      1.18711111111111E-01
      0.00000000000000E+00   0.00000000000000E+00   0.00000000000000E+00   0.00000000000000E+00  -6.80980869156725E-19
     -2.96084047893320E-04  -2.96084047893321E-04   2.60336434873507E-17   0.00000000000000E+00   0.00000000000000E+00
      0.00000000000000E+00   0.00000000000000E+00  -2.06932874975921E-19  -4.24379185540793E-04  -4.24379185540794E-04
     -1.90505401307850E-15   3.56133333333333E-01   3.56133333333333E-01   0.00000000000000E+00   0.00000000000000E+00
      3.05209127164191E-19   7.20463233434114E-04   7.20463233434114E-04  -1.63173554655963E-15   3.00000000000000E+00
      3.00000000000000E+00   0.00000000000000E+00   0.00000000000000E+00   0.00000000000000E+00   0.00000000000000E+00
      0.00000000000000E+00   3.51075591615078E-15
      1.43711111111111E-01
      0.00000000000000E+00   0.00000000000000E+00   0.00000000000000E+00   0.00000000000000E+00  -8.54949543352870E-19
     -3.57510234801417E-04  -3.57510234801417E-04   2.59796107343724E-17   0.00000000000000E+00   0.00000000000000E+00
      0.00000000000000E+00   0.00000000000000E+00  -2.50360891266929E-19  -5.13569232256022E-04  -5.13569232256022E-04
     -1.88998534556542E-15   4.31133333333333E-01   4.31133333333333E-01   0.00000000000000E+00   0.00000000000000E+00
      3.59539481569843E-19   8.71079467057438E-04   8.71079467057439E-04  -1.61833896658258E-15   3.00000000000000E+00
      3.00000000000000E+00   0.00000000000000E+00   0.00000000000000E+00   0.00000000000000E+00   0.00000000000000E+00
      0.00000000000000E+00   3.48234470141363E-15
      1.68711111111111E-01
      0.00000000000000E+00   0.00000000000000E+00   0.00000000000000E+00   0.00000000000000E+00  -1.01619400489440E-18
     -4.18620728520249E-04  -4.18620728520250E-04   2.59258860634257E-17   0.00000000000000E+00   0.00000000000000E+00
      0.00000000000000E+00   0.00000000000000E+00  -2.93508330675485E-19  -6.02719574988149E-04  -6.02719574988149E-04
     -1.87495226122538E-15   5.06133333333333E-01   5.06133333333333E-01   0.00000000000000E+00   0.00000000000000E+00
      4.11718964936903E-19   1.02134030350840E-03   1.02134030350840E-03  -1.60497360276325E-15   3.00000000000000E+00
      3.00000000000000E+00   0.00000000000000E+00   0.00000000000000E+00   0.00000000000000E+00   0.00000000000000E+00
      0.00000000000000E+00   3.45399997792521E-15
      1.93711111111111E-01
      0.00000000000000E+00   0.00000000000000E+00   0.00000000000000E+00   0.00000000000000E+00  -1.16898851385741E-18
     -4.79422126323686E-04  -4.79422126323687E-04   2.58724635817653E-17   0.00000000000000E+00   0.00000000000000E+00
      0.00000000000000E+00   0.00000000000000E+00  -3.36386511318206E-19  -6.91841026261236E-04  -6.91841026261236E-04
     -1.85995206941626E-15   5.81133333333333E-01   5.81133333333333E-01   0.00000000000000E+00   0.00000000000000E+00
      4.62543676971410E-19   1.17126315258492E-03   1.17126315258492E-03  -1.59163709105359E-15   3.00000000000000E+00
      3.00000000000000E+00   0.00000000000000E+00   0.00000000000000E+00   0.00000000000000E+00   0.00000000000000E+00
      0.00000000000000E+00   3.42571669688809E-15
      2.18711111111111E-01
      0.00000000000000E+00   0.00000000000000E+00   0.00000000000000E+00   0.00000000000000E+00  -1.31674171978976E-18
     -5.39921403317599E-04  -5.39921403317601E-04   2.58193369989495E-17   0.00000000000000E+00   0.00000000000000E+00
      0.00000000000000E+00   0.00000000000000E+00  -3.79032555507400E-19  -7.80943785463781E-04  -7.80943785463781E-04
     -1.84498215655856E-15   6.56133333333333E-01   6.56133333333333E-01   0.00000000000000E+00   0.00000000000000E+00
      5.12752380629653E-19   1.32086518878138E-03   1.32086518878138E-03  -1.57832713546760E-15   3.00000000000000E+00
      3.00000000000000E+00   0.00000000000000E+00   0.00000000000000E+00   0.00000000000000E+00   0.00000000000000E+00
      0.00000000000000E+00   3.39748995502721E-15
      2.43711111111111E-01
      0.00000000000000E+00   0.00000000000000E+00   0.00000000000000E+00   0.00000000000000E+00  -1.46140395318290E-18
     -6.00125498538920E-04  -6.00125498538922E-04   2.57665000093044E-17   0.00000000000000E+00   0.00000000000000E+00
      0.00000000000000E+00   0.00000000000000E+00  -4.21493849957917E-19  -8.70037148799635E-04  -8.70037148799635E-04
     -1.83004004545294E-15   7.31133333333333E-01   7.31133333333333E-01   0.00000000000000E+00   0.00000000000000E+00
      5.62967719980015E-19   1.47016264733856E-03   1.47016264733856E-03  -1.56504156084216E-15   3.00000000000000E+00
      3.00000000000000E+00   0.00000000000000E+00   0.00000000000000E+00   0.00000000000000E+00   0.00000000000000E+00
      0.00000000000000E+00   3.36931510628580E-15
      2.68711111111111E-01
      0.00000000000000E+00   0.00000000000000E+00   0.00000000000000E+00   0.00000000000000E+00  -1.60394433335671E-18
     -6.60041046042466E-04  -6.60041046042468E-04   2.57139465425594E-17   0.00000000000000E+00   0.00000000000000E+00
      0.00000000000000E+00   0.00000000000000E+00  -4.63818550554350E-19  -9.59129346007085E-04  -9.59129346007085E-04
     -1.81512343313775E-15   8.06133333333333E-01   8.06133333333333E-01   0.00000000000000E+00   0.00000000000000E+00
      6.13683902581240E-19   1.61917039204955E-03   1.61917039204955E-03  -1.55177834641202E-15   3.00000000000000E+00
      3.00000000000000E+00   0.00000000000000E+00   0.00000000000000E+00   0.00000000000000E+00   0.00000000000000E+00
      0.00000000000000E+00   3.34118783300721E-15
      2.93711111111111E-01
      0.00000000000000E+00   0.00000000000000E+00   0.00000000000000E+00   0.00000000000000E+00  -1.74481304430461E-18
     -7.19674217699763E-04  -7.19674217699764E-04   2.56616709125802E-17   0.00000000000000E+00   0.00000000000000E+00
      0.00000000000000E+00   0.00000000000000E+00  -5.06050618293814E-19  -1.04822748463031E-03  -1.04822748463031E-03
     -1.80023021002974E-15   8.81133333333333E-01   8.81133333333333E-01   0.00000000000000E+00   0.00000000000000E+00
      6.65278041240382E-19   1.76790170233007E-03   1.76790170233007E-03  -1.53853564272701E-15   3.00000000000000E+00
      3.00000000000000E+00   0.00000000000000E+00   0.00000000000000E+00   0.00000000000000E+00   0.00000000000000E+00
      0.00000000000000E+00   3.31310418184417E-15
      3.18711111111111E-01
      0.00000000000000E+00   0.00000000000000E+00   0.00000000000000E+00   0.00000000000000E+00  -1.88421560213758E-18
     -7.79030646818718E-04  -7.79030646818720E-04   2.56096678931926E-17   0.00000000000000E+00   0.00000000000000E+00
      0.00000000000000E+00   0.00000000000000E+00  -5.48227808714776E-19  -1.13733757403108E-03  -1.13733757403108E-03
     -1.78535846491071E-15   9.56133333333333E-01   9.56133333333333E-01   0.00000000000000E+00   0.00000000000000E+00
      7.18029211637761E-19   1.91636822084980E-03   1.91636822084980E-03  -1.52531177594775E-15   3.00000000000000E+00
      3.00000000000000E+00   0.00000000000000E+00   0.00000000000000E+00   0.00000000000000E+00   0.00000000000000E+00
      0.00000000000000E+00   3.28506057296527E-15
      3.43711111111111E-01
      0.00000000000000E+00   0.00000000000000E+00   0.00000000000000E+00   0.00000000000000E+00  -2.02224963000363E-18
     -8.38115406519892E-04  -8.38115406519894E-04   2.55579327443574E-17   0.00000000000000E+00   0.00000000000000E+00
      0.00000000000000E+00   0.00000000000000E+00  -5.90381363169385E-19  -1.22646460088950E-03  -1.22646460088950E-03
     -1.77050648020284E-15   1.03113333333333E+00   1.03113333333333E+00   0.00000000000000E+00   0.00000000000000E+00
      7.72137647733766E-19   2.06458000740939E-03   2.06458000740939E-03  -1.51210524351415E-15   3.00000000000000E+00
      3.00000000000000E+00   0.00000000000000E+00   0.00000000000000E+00   0.00000000000000E+00   0.00000000000000E+00
      0.00000000000000E+00   3.25705379097263E-15
      3.68711111111111E-01
      0.00000000000000E+00   0.00000000000000E+00   0.00000000000000E+00   0.00000000000000E+00  -2.15896703977005E-18
     -8.96933022696587E-04  -8.96933022696589E-04   2.55064612059513E-17   0.00000000000000E+00   0.00000000000000E+00
      0.00000000000000E+00   0.00000000000000E+00  -6.32536545520436E-19  -1.31561263320943E-03  -1.31561263320943E-03
     -1.75567272126274E-15   1.10613333333333E+00   1.10613333333333E+00   0.00000000000000E+00   0.00000000000000E+00
      8.27741375844836E-19   2.21254565590602E-03   2.21254565590602E-03  -1.49891470450415E-15   3.00000000000000E+00
      3.00000000000000E+00   0.00000000000000E+00   0.00000000000000E+00   0.00000000000000E+00   0.00000000000000E+00
      0.00000000000000E+00   3.22908096456094E-15
      3.93711111111111E-01
      0.00000000000000E+00   0.00000000000000E+00   0.00000000000000E+00   0.00000000000000E+00  -2.29440067228307E-18
     -9.55487506899896E-04  -9.55487506899899E-04   2.54552494725983E-17   0.00000000000000E+00   0.00000000000000E+00
      0.00000000000000E+00   0.00000000000000E+00  -6.74713504969009E-19  -1.40478493563022E-03  -1.40478493563022E-03
     -1.74085582251814E-15   1.18113333333333E+00   1.18113333333333E+00   0.00000000000000E+00   0.00000000000000E+00
      8.84929814343054E-19   2.36027244253012E-03   2.36027244253012E-03  -1.48573896720375E-15   3.00000000000000E+00
      3.00000000000000E+00   0.00000000000000E+00   0.00000000000000E+00   0.00000000000000E+00   0.00000000000000E+00
      0.00000000000000E+00   3.20113954024930E-15
      4.18711111111111E-01
      0.00000000000000E+00   0.00000000000000E+00   0.00000000000000E+00   0.00000000000000E+00  -2.42857524999672E-18
     -1.01378239925071E-03  -1.01378239925071E-03   2.54042941606636E-17   0.00000000000000E+00   0.00000000000000E+00
      0.00000000000000E+00   0.00000000000000E+00  -7.16928185626266E-19  -1.49398408455297E-03  -1.49398408455297E-03
     -1.72605457241584E-15   1.25613333333333E+00   1.25613333333333E+00   0.00000000000000E+00   0.00000000000000E+00
      9.43754615945192E-19   2.50776648380368E-03   2.50776648380368E-03  -1.47257697565361E-15   3.00000000000000E+00
      3.00000000000000E+00   0.00000000000000E+00   0.00000000000000E+00   0.00000000000000E+00   0.00000000000000E+00
      0.00000000000000E+00   3.17322725390878E-15
      4.43711111111111E-01
      0.00000000000000E+00   0.00000000000000E+00   0.00000000000000E+00   0.00000000000000E+00  -2.56151176209221E-18
     -1.07182081505336E-03  -1.07182081505336E-03   2.53535922689329E-17   0.00000000000000E+00   0.00000000000000E+00
      0.00000000000000E+00   0.00000000000000E+00  -7.59193153367762E-19  -1.58321207642518E-03  -1.58321207642519E-03
     -1.71126789828721E-15   1.33113333333333E+00   1.33113333333333E+00   0.00000000000000E+00   0.00000000000000E+00
      1.00423822161470E-18   2.65503289147854E-03   2.65503289147854E-03  -1.45942779613379E-15   3.00000000000000E+00
      3.00000000000000E+00   0.00000000000000E+00   0.00000000000000E+00   0.00000000000000E+00   0.00000000000000E+00
      0.00000000000000E+00   3.14534210215207E-15
      4.68711111111111E-01
      0.00000000000000E+00   0.00000000000000E+00   0.00000000000000E+00   0.00000000000000E+00  -2.69322920755150E-18
     -1.12960549119419E-03  -1.12960549119420E-03   2.53031411399314E-17   0.00000000000000E+00   0.00000000000000E+00
      0.00000000000000E+00   0.00000000000000E+00  -8.01518294111425E-19  -1.67247042537344E-03  -1.67247042537344E-03
     -1.69649485194707E-15   1.40613333333333E+00   1.40613333333333E+00   0.00000000000000E+00   0.00000000000000E+00
      1.06638060664096E-18   2.80207591656763E-03   2.80207591656763E-03  -1.44629060432956E-15   3.00000000000000E+00
      3.00000000000000E+00   0.00000000000000E+00   0.00000000000000E+00   0.00000000000000E+00   0.00000000000000E+00
      0.00000000000000E+00   3.11748231513670E-15
      4.93711111111111E-01
      0.00000000000000E+00   0.00000000000000E+00   0.00000000000000E+00   0.00000000000000E+00  -2.82374530720408E-18
     -1.18713883017164E-03  -1.18713883017164E-03   2.52529384224747E-17   0.00000000000000E+00   0.00000000000000E+00
      0.00000000000000E+00   0.00000000000000E+00  -8.43911379658904E-19  -1.76176024870929E-03  -1.76176024870929E-03
     -1.68173459635611E-15   1.48113333333333E+00   1.48113333333333E+00   0.00000000000000E+00   0.00000000000000E+00
      1.13016459578366E-18   2.94889907888093E-03   2.94889907888093E-03  -1.43316467346341E-15   3.00000000000000E+00
      3.00000000000000E+00   0.00000000000000E+00   0.00000000000000E+00   0.00000000000000E+00   0.00000000000000E+00
      0.00000000000000E+00   3.08964633139704E-15
      5.18711111111111E-01
      0.00000000000000E+00   0.00000000000000E+00   0.00000000000000E+00   0.00000000000000E+00  -2.95307682119488E-18
     -1.24442294067602E-03  -1.24442294067602E-03   2.52029820366591E-17   0.00000000000000E+00   0.00000000000000E+00
      0.00000000000000E+00   0.00000000000000E+00  -8.86378515273421E-19  -1.85108234024126E-03  -1.85108234024126E-03
     -1.66698639350220E-15   1.55613333333333E+00   1.55613333333333E+00   0.00000000000000E+00   0.00000000000000E+00
      1.19556005093325E-18   3.09550528091728E-03   3.09550528091728E-03  -1.42004936352718E-15   3.00000000000000E+00
      3.00000000000000E+00   0.00000000000000E+00   0.00000000000000E+00   0.00000000000000E+00   0.00000000000000E+00
      0.00000000000000E+00   3.06183277499272E-15
      5.43711111111111E-01
      0.00000000000000E+00   0.00000000000000E+00   0.00000000000000E+00   0.00000000000000E+00  -3.08123971539205E-18
     -1.30145967425766E-03  -1.30145967425766E-03   2.51532701419722E-17   0.00000000000000E+00   0.00000000000000E+00
      0.00000000000000E+00   0.00000000000000E+00  -9.28924488723451E-19  -1.94043723203153E-03  -1.94043723203153E-03
     -1.65224959353897E-15   1.63113333333333E+00   1.63113333333333E+00   0.00000000000000E+00   0.00000000000000E+00
      1.26252716421603E-18   3.24189690628919E-03   3.24189690628919E-03  -1.40694411164855E-15   3.00000000000000E+00
      3.00000000000000E+00   0.00000000000000E+00   0.00000000000000E+00   0.00000000000000E+00   0.00000000000000E+00
      0.00000000000000E+00   3.03404043504555E-15
      5.68711111111111E-01
      0.00000000000000E+00   0.00000000000000E+00   0.00000000000000E+00   0.00000000000000E+00  -3.20824926781438E-18
     -1.35825065813370E-03  -1.35825065813370E-03   2.51038011084127E-17   0.00000000000000E+00   0.00000000000000E+00
      0.00000000000000E+00   0.00000000000000E+00  -9.71553040392555E-19  -2.02982524578275E-03  -2.02982524578275E-03
     -1.63752362510271E-15   1.70613333333333E+00   1.70613333333333E+00   0.00000000000000E+00   0.00000000000000E+00
      1.33101903750841E-18   3.38807590391645E-03   3.38807590391645E-03  -1.39384842351722E-15   3.00000000000000E+00
      3.00000000000000E+00   0.00000000000000E+00   0.00000000000000E+00   0.00000000000000E+00   0.00000000000000E+00
      0.00000000000000E+00   3.00626824751152E-15
      5.93711111111111E-01
      0.00000000000000E+00   0.00000000000000E+00   0.00000000000000E+00   0.00000000000000E+00  -3.33412014835452E-18
     -1.41479732427387E-03  -1.41479732427388E-03   2.50545734916138E-17   0.00000000000000E+00   0.00000000000000E+00
      0.00000000000000E+00   0.00000000000000E+00  -1.01426707146186E-18  -2.11924653496077E-03  -2.11924653496077E-03
     -1.62280798675236E-15   1.78113333333333E+00   1.78113333333333E+00   0.00000000000000E+00   0.00000000000000E+00
      1.40098375403741E-18   3.53404385923465E-03   3.53404385923465E-03  -1.38076186584233E-15   3.00000000000000E+00
      3.00000000000000E+00   0.00000000000000E+00   0.00000000000000E+00   0.00000000000000E+00   0.00000000000000E+00
      0.00000000000000E+00   2.97851527910307E-15
      6.18711111111111E-01
      0.00000000000000E+00   0.00000000000000E+00   0.00000000000000E+00   0.00000000000000E+00  -3.45886648424865E-18
     -1.47110093511033E-03  -1.47110093511033E-03   2.50055860083574E-17   0.00000000000000E+00   0.00000000000000E+00
      0.00000000000000E+00   0.00000000000000E+00  -1.05706880441929E-18  -2.20870111941050E-03  -2.20870111941050E-03
     -1.60810223934327E-15   1.85613333333333E+00   1.85613333333333E+00   0.00000000000000E+00   0.00000000000000E+00
      1.47236602143500E-18   3.67980205452083E-03   3.67980205452083E-03  -1.36768405958762E-15   3.00000000000000E+00
      3.00000000000000E+00   0.00000000000000E+00   0.00000000000000E+00   0.00000000000000E+00   0.00000000000000E+00
      0.00000000000000E+00   2.95078071292253E-15
      6.43711111111111E-01
      0.00000000000000E+00   0.00000000000000E+00   0.00000000000000E+00   0.00000000000000E+00  -3.58250191609598E-18
     -1.52716260620357E-03  -1.52716260620357E-03   2.49568375153250E-17   0.00000000000000E+00   0.00000000000000E+00
      0.00000000000000E+00   0.00000000000000E+00  -1.09995990686001E-18  -2.29818891331670E-03  -2.29818891331670E-03
     -1.59340599929010E-15   1.93113333333333E+00   1.93113333333333E+00   0.00000000000000E+00   0.00000000000000E+00
      1.54510844558093E-18   3.82535151952027E-03   3.82535151952027E-03  -1.35461467403100E-15   3.00000000000000E+00
      3.00000000000000E+00   0.00000000000000E+00   0.00000000000000E+00   0.00000000000000E+00   0.00000000000000E+00
      0.00000000000000E+00   2.92306383580578E-15
      6.68711111111111E-01
      0.00000000000000E+00   0.00000000000000E+00   0.00000000000000E+00   0.00000000000000E+00  -3.70503964647254E-18
     -1.58298332614417E-03  -1.58298332614417E-03   2.49083269922665E-17   0.00000000000000E+00   0.00000000000000E+00
      0.00000000000000E+00   0.00000000000000E+00  -1.14294158713415E-18  -2.38770974737249E-03  -2.38770974737249E-03
     -1.57871893266126E-15   2.00613333333333E+00   2.00613333333333E+00   0.00000000000000E+00   0.00000000000000E+00
      1.61915252394725E-18   3.97069307351666E-03   3.97069307351666E-03  -1.34155342160098E-15   3.00000000000000E+00
      3.00000000000000E+00   0.00000000000000E+00   0.00000000000000E+00   0.00000000000000E+00   0.00000000000000E+00
      0.00000000000000E+00   2.89536402726997E-15
      6.93711111111111E-01
      0.00000000000000E+00   0.00000000000000E+00   0.00000000000000E+00   0.00000000000000E+00  -3.82649248252617E-18
     -1.63856397408442E-03  -1.63856397408442E-03   2.48600535258777E-17   0.00000000000000E+00   0.00000000000000E+00
      0.00000000000000E+00   0.00000000000000E+00  -1.18601466875461E-18  -2.47726338662055E-03  -2.47726338662056E-03
     -1.56404074991675E-15   2.08113333333333E+00   2.08113333333333E+00   0.00000000000000E+00   0.00000000000000E+00
      1.69443941808960E-18   4.11582736070497E-03   4.11582736070498E-03  -1.32850005326302E-15   3.00000000000000E+00
      3.00000000000000E+00   0.00000000000000E+00   0.00000000000000E+00   0.00000000000000E+00   0.00000000000000E+00
      0.00000000000000E+00   2.86768074965389E-15
      7.18711111111111E-01
      0.00000000000000E+00   0.00000000000000E+00   0.00000000000000E+00   0.00000000000000E+00  -3.94687287339257E-18
     -1.69390533518146E-03  -1.69390533518146E-03   2.48120162945237E-17   0.00000000000000E+00   0.00000000000000E+00
      0.00000000000000E+00   0.00000000000000E+00  -1.22917964864525E-18  -2.56684954474671E-03  -2.56684954474671E-03
     -1.54937120121598E-15   2.15613333333333E+00   2.15613333333333E+00   0.00000000000000E+00   0.00000000000000E+00
      1.77091056108526E-18   4.26075487992816E-03   4.26075487992816E-03  -1.31545435439573E-15   3.00000000000000E+00
      3.00000000000000E+00   0.00000000000000E+00   0.00000000000000E+00   0.00000000000000E+00   0.00000000000000E+00
      0.00000000000000E+00   2.84001353931719E-15
      7.43711111111111E-01
      0.00000000000000E+00   0.00000000000000E+00   0.00000000000000E+00   0.00000000000000E+00  -4.06619294301606E-18
     -1.74900811416514E-03  -1.74900811416514E-03   2.47642145559526E-17   0.00000000000000E+00   0.00000000000000E+00
      0.00000000000000E+00   0.00000000000000E+00  -1.27243674293854E-18  -2.65646789515536E-03  -2.65646789515536E-03
     -1.53471007228404E-15   2.23113333333333E+00   2.23113333333333E+00   0.00000000000000E+00   0.00000000000000E+00
      1.84850809411409E-18   4.40547600932050E-03   4.40547600932050E-03  -1.30241614118552E-15   3.00000000000000E+00
      3.00000000000000E+00   0.00000000000000E+00   0.00000000000000E+00   0.00000000000000E+00   0.00000000000000E+00
      0.00000000000000E+00   2.81236199891361E-15
      7.68711111111111E-01
      0.00000000000000E+00   0.00000000000000E+00   0.00000000000000E+00   0.00000000000000E+00  -4.18446451906851E-18
     -1.80387294731001E-03  -1.80387294731001E-03   2.47166476358106E-17   0.00000000000000E+00   0.00000000000000E+00
      0.00000000000000E+00   0.00000000000000E+00  -1.31578592338613E-18  -2.74611807963871E-03  -2.74611807963871E-03
     -1.52005718069540E-15   2.30613333333333E+00   2.30613333333333E+00   0.00000000000000E+00   0.00000000000000E+00
      1.92717524072611E-18   4.54999102694872E-03   4.54999102694872E-03  -1.28938525738930E-15   3.00000000000000E+00
      3.00000000000000E+00   0.00000000000000E+00   0.00000000000000E+00   0.00000000000000E+00   0.00000000000000E+00
      0.00000000000000E+00   2.78472579044889E-15
      7.93711111111111E-01
      0.00000000000000E+00   0.00000000000000E+00   0.00000000000000E+00   0.00000000000000E+00  -4.30169915823819E-18
     -1.85850041290523E-03  -1.85850041290523E-03   2.46693149205288E-17   0.00000000000000E+00   0.00000000000000E+00
      0.00000000000000E+00   0.00000000000000E+00  -1.35922694672509E-18  -2.83579971532943E-03  -2.83579971532943E-03
     -1.50541237272283E-15   2.38113333333333E+00   2.38113333333333E+00   0.00000000000000E+00   0.00000000000000E+00
      2.00685654036242E-18   4.69430012823466E-03   4.69430012823466E-03  -1.27636157160618E-15   3.00000000000000E+00
      3.00000000000000E+00   0.00000000000000E+00   0.00000000000000E+00   0.00000000000000E+00   0.00000000000000E+00
      0.00000000000000E+00   2.75710462940848E-15
      8.18711111111112E-01
      0.00000000000000E+00   0.00000000000000E+00   0.00000000000000E+00   0.00000000000000E+00  -4.41790816883687E-18
     -1.91289104063406E-03  -1.91289104063406E-03   2.46222158430484E-17   0.00000000000000E+00   0.00000000000000E+00
      0.00000000000000E+00   0.00000000000000E+00  -1.40275937862814E-18  -2.92551240017892E-03  -2.92551240017892E-03
     -1.49077552019593E-15   2.45613333333333E+00   2.45613333333333E+00   0.00000000000000E+00   0.00000000000000E+00
      2.08749804339674E-18   4.83840344081298E-03   4.83840344081298E-03  -1.26334497448074E-15   3.00000000000000E+00
      3.00000000000000E+00   0.00000000000000E+00   0.00000000000000E+00   0.00000000000000E+00   0.00000000000000E+00
      0.00000000000000E+00   2.72949827883362E-15
      8.43711111111112E-01
      0.00000000000000E+00   0.00000000000000E+00   0.00000000000000E+00   0.00000000000000E+00  -4.53310263046662E-18
     -1.96704531971963E-03  -1.96704531971964E-03   2.45753498759243E-17   0.00000000000000E+00   0.00000000000000E+00
      0.00000000000000E+00   0.00000000000000E+00  -1.44638261345273E-18  -3.01525571713169E-03  -3.01525571713169E-03
     -1.47614651793146E-15   2.53113333333333E+00   2.53113333333333E+00   0.00000000000000E+00   0.00000000000000E+00
      2.16904744991284E-18   4.98230103685133E-03   4.98230103685133E-03  -1.25033537645995E-15   3.00000000000000E+00
      3.00000000000000E+00   0.00000000000000E+00   0.00000000000000E+00   0.00000000000000E+00   0.00000000000000E+00
      0.00000000000000E+00   2.70190654451549E-15
      8.68711111111112E-01
      0.00000000000000E+00   0.00000000000000E+00   0.00000000000000E+00   0.00000000000000E+00  -4.64729341134896E-18