DF-ISE text

Info {
  version   = 1.0
  type      = xyplot
  datasets  = [
    "time"
    "substrate OuterVoltage" "substrate InnerVoltage" "substrate QuasiFermiPotential" "substrate DisplacementCurrent" "substrate eCurrent"
    "substrate hCurrent" "substrate TotalCurrent" "substrate Charge" "source OuterVoltage" "source InnerVoltage"
    "source QuasiFermiPotential" "source DisplacementCurrent" "source eCurrent" "source hCurrent" "source TotalCurrent"
    "source Charge" "drain OuterVoltage" "drain InnerVoltage" "drain QuasiFermiPotential" "drain DisplacementCurrent"
    "drain eCurrent" "drain hCurrent" "drain TotalCurrent" "drain Charge" "gate OuterVoltage"
    "gate InnerVoltage" "gate QuasiFermiPotential" "gate DisplacementCurrent" "gate eCurrent" "gate hCurrent"
    "gate TotalCurrent" "gate Charge" ]
  functions = [
    Time
    OuterVoltage InnerVoltage QuasiFermiPotential DisplacementCurrent eCurrent
    hCurrent TotalCurrent Charge OuterVoltage InnerVoltage
    QuasiFermiPotential DisplacementCurrent eCurrent hCurrent TotalCurrent
    Charge OuterVoltage InnerVoltage QuasiFermiPotential DisplacementCurrent
    eCurrent hCurrent TotalCurrent Charge OuterVoltage
    InnerVoltage QuasiFermiPotential DisplacementCurrent eCurrent hCurrent
    TotalCurrent Charge ]
}

Data {
      0.00000000000000E+00
      0.00000000000000E+00   0.00000000000000E+00   0.00000000000000E+00   0.00000000000000E+00  -4.66255448862168E-17
     -6.11080882355437E-28  -4.66255448868279E-17  -6.47370576952829E-15   0.00000000000000E+00   0.00000000000000E+00
      0.00000000000000E+00   0.00000000000000E+00   2.32845951257675E-17   2.85575247956765E-28   2.32845951260531E-17
     -1.28156269037177E-15   0.00000000000000E+00   0.00000000000000E+00   0.00000000000000E+00   0.00000000000000E+00
      2.33409497604492E-17   3.25630347441145E-28   2.33409497607748E-17  -1.28156269037177E-15   8.00000000000000E+00
      8.00000000000000E+00   0.00000000000000E+00   0.00000000000000E+00   0.00000000000000E+00   0.00000000000000E+00
      0.00000000000000E+00   9.03683115027183E-15
      1.00000000000000E-02
      0.00000000000000E+00   0.00000000000000E+00   0.00000000000000E+00   0.00000000000000E+00   1.98622879480900E-17
     -1.23899308556912E-16  -1.04037020608822E-16  -6.49170433717198E-15   0.00000000000000E+00   0.00000000000000E+00
      0.00000000000000E+00   0.00000000000000E+00  -2.68861491777325E-04  -1.93062077173078E-23  -2.68861491777325E-04
     -1.28050671149765E-15   3.00000000000000E-02   3.00000000000000E-02   0.00000000000000E+00   0.00000000000000E+00
      2.68861491777429E-04   9.79265411325113E-21   2.68861491777429E-04  -1.24636056729131E-15   8.00000000000000E+00
      8.00000000000000E+00   0.00000000000000E+00   0.00000000000000E+00   0.00000000000000E+00   0.00000000000000E+00
      0.00000000000000E+00   9.01857161596095E-15
      2.33333333333333E-02
      0.00000000000000E+00   0.00000000000000E+00   0.00000000000000E+00   0.00000000000000E+00   9.89855513887339E-16
     -2.70226962783435E-16   7.19628551103904E-16  -6.51543169348794E-15   0.00000000000000E+00   0.00000000000000E+00
      0.00000000000000E+00   0.00000000000000E+00  -6.01726917889901E-04  -4.35606295802724E-23  -6.01726917889901E-04
     -1.27931504726234E-15   7.00000000000000E-02   7.00000000000000E-02   0.00000000000000E+00   0.00000000000000E+00
      6.01726917889181E-04   1.30894480537032E-20   6.01726917889181E-04  -1.19949730777379E-15   8.00000000000000E+00
      8.00000000000000E+00   0.00000000000000E+00   0.00000000000000E+00   0.00000000000000E+00   0.00000000000000E+00
      0.00000000000000E+00   8.99424404852407E-15
      4.28888888888889E-02
      0.00000000000000E+00   0.00000000000000E+00   0.00000000000000E+00   0.00000000000000E+00   5.43636278071838E-18
     -4.44308571258022E-16  -4.38872208477304E-16  -6.54970120552617E-15   0.00000000000000E+00   0.00000000000000E+00
      0.00000000000000E+00   0.00000000000000E+00  -1.03937034493254E-03  -7.48710391511027E-23  -1.03937034493254E-03
     -1.27799264909027E-15   1.28666666666667E-01   1.28666666666667E-01   0.00000000000000E+00   0.00000000000000E+00
      1.03937034493298E-03   1.37959859159011E-20   1.03937034493298E-03  -1.13091596333846E-15   8.00000000000000E+00
      8.00000000000000E+00   0.00000000000000E+00   0.00000000000000E+00   0.00000000000000E+00   0.00000000000000E+00
      0.00000000000000E+00   8.95860981795489E-15
      6.78888888888889E-02
      0.00000000000000E+00   0.00000000000000E+00   0.00000000000000E+00   0.00000000000000E+00  -1.60822300281853E-17
     -5.81546728545911E-16  -5.97628958574097E-16  -6.59265600774374E-15   0.00000000000000E+00   0.00000000000000E+00
      0.00000000000000E+00   0.00000000000000E+00  -1.52150351003096E-03  -1.09772144194903E-22  -1.52150351003096E-03
     -1.27695114559394E-15   2.03666666666667E-01   2.03666666666667E-01   0.00000000000000E+00   0.00000000000000E+00
      1.52150351003155E-03   1.40468419660331E-20   1.52150351003155E-03  -1.04354818497091E-15   8.00000000000000E+00
      8.00000000000000E+00   0.00000000000000E+00   0.00000000000000E+00   0.00000000000000E+00   0.00000000000000E+00
      0.00000000000000E+00   8.91315533830860E-15
      9.28888888888889E-02
      0.00000000000000E+00   0.00000000000000E+00   0.00000000000000E+00   0.00000000000000E+00   2.33307815215628E-17
     -6.58747046047187E-16  -6.35416264525624E-16  -6.63471912482930E-15   0.00000000000000E+00   0.00000000000000E+00
      0.00000000000000E+00   0.00000000000000E+00  -1.93017523203512E-03  -1.39403356520366E-22  -1.93017523203512E-03
     -1.27652203955031E-15   2.78666666666667E-01   2.78666666666667E-01   0.00000000000000E+00   0.00000000000000E+00
      1.93017523203575E-03   1.43783265261575E-20   1.93017523203575E-03  -9.56602238779786E-16   8.00000000000000E+00
      8.00000000000000E+00   0.00000000000000E+00   0.00000000000000E+00   0.00000000000000E+00   0.00000000000000E+00
      0.00000000000000E+00   8.86784340315939E-15
      1.17888888888889E-01
      0.00000000000000E+00   0.00000000000000E+00   0.00000000000000E+00   0.00000000000000E+00   1.44968342601914E-17
     -7.03729165375733E-16  -6.89232331115541E-16  -6.67594309635650E-15   0.00000000000000E+00   0.00000000000000E+00
      0.00000000000000E+00   0.00000000000000E+00  -2.27769109280560E-03  -1.64620157724898E-22  -2.27769109280560E-03
     -1.27659471578768E-15   3.53666666666667E-01   3.53666666666667E-01   0.00000000000000E+00   0.00000000000000E+00
      2.27769109280629E-03   1.46680446445514E-20   2.27769109280629E-03  -8.70168785196829E-16   8.00000000000000E+00
      8.00000000000000E+00   0.00000000000000E+00   0.00000000000000E+00   0.00000000000000E+00   0.00000000000000E+00
      0.00000000000000E+00   8.82270659734100E-15
      1.42888888888889E-01
      0.00000000000000E+00   0.00000000000000E+00   0.00000000000000E+00   0.00000000000000E+00   9.51358269138733E-18
     -7.36008198753489E-16  -7.26494616062102E-16  -6.71636810011909E-15   0.00000000000000E+00   0.00000000000000E+00
      0.00000000000000E+00   0.00000000000000E+00  -2.57419053821767E-03  -1.86142077692724E-22  -2.57419053821767E-03
     -1.27707334094796E-15   4.28666666666667E-01   4.28666666666667E-01   0.00000000000000E+00   0.00000000000000E+00
      2.57419053821840E-03   1.49143937869731E-20   2.57419053821840E-03  -7.84337188957839E-16   8.00000000000000E+00
      8.00000000000000E+00   0.00000000000000E+00   0.00000000000000E+00   0.00000000000000E+00   0.00000000000000E+00
      0.00000000000000E+00   8.77777863002488E-15
      1.67888888888889E-01
      0.00000000000000E+00   0.00000000000000E+00   0.00000000000000E+00   0.00000000000000E+00   2.01596270621612E-17
     -7.65680212199349E-16  -7.45520585137188E-16  -6.75601820859656E-15   0.00000000000000E+00   0.00000000000000E+00
      0.00000000000000E+00   0.00000000000000E+00  -2.82799777435568E-03  -2.04564054043580E-22  -2.82799777435568E-03
     -1.27787517001307E-15   5.03666666666667E-01   5.03666666666667E-01   0.00000000000000E+00   0.00000000000000E+00
      2.82799777435643E-03   1.51239035304877E-20   2.82799777435643E-03  -6.99202021254753E-16   8.00000000000000E+00
      8.00000000000000E+00   0.00000000000000E+00   0.00000000000000E+00   0.00000000000000E+00   0.00000000000000E+00
      0.00000000000000E+00   8.73309539986439E-15
      1.92888888888889E-01
      0.00000000000000E+00   0.00000000000000E+00   0.00000000000000E+00   0.00000000000000E+00   3.35238096139342E-17
     -7.91682806474221E-16  -7.58158996860287E-16  -6.79486458084039E-15   0.00000000000000E+00   0.00000000000000E+00
      0.00000000000000E+00   0.00000000000000E+00  -3.04594290771828E-03  -2.20380444005952E-22  -3.04594290771828E-03
     -1.27893118301998E-15   5.78666666666667E-01   5.78666666666667E-01   0.00000000000000E+00   0.00000000000000E+00
      3.04594290771903E-03   1.53030625129971E-20   3.04594290771903E-03  -6.14896146356780E-16   8.00000000000000E+00
      8.00000000000000E+00   0.00000000000000E+00   0.00000000000000E+00   0.00000000000000E+00   0.00000000000000E+00
      0.00000000000000E+00   8.68869191021714E-15
      2.17888888888889E-01
      0.00000000000000E+00   0.00000000000000E+00   0.00000000000000E+00   0.00000000000000E+00   9.06149064752294E-19
     -8.11943246376423E-16  -8.11037097311671E-16  -6.83278278746025E-15   0.00000000000000E+00   0.00000000000000E+00
      0.00000000000000E+00   0.00000000000000E+00  -3.23368126791526E-03  -2.33998948131354E-22  -3.23368126791526E-03
     -1.28018692193496E-15   6.53666666666667E-01   6.53666666666667E-01   0.00000000000000E+00   0.00000000000000E+00
      3.23368126791607E-03   1.54566473642556E-20   3.23368126791607E-03  -5.31633862966172E-16   8.00000000000000E+00
      8.00000000000000E+00   0.00000000000000E+00   0.00000000000000E+00   0.00000000000000E+00   0.00000000000000E+00
      0.00000000000000E+00   8.64460357236139E-15
      2.42888888888889E-01
      0.00000000000000E+00   0.00000000000000E+00   0.00000000000000E+00   0.00000000000000E+00   4.53033490283649E-18
     -8.31521919440018E-16  -8.26991584537182E-16  -6.86952512488844E-15   0.00000000000000E+00   0.00000000000000E+00
      0.00000000000000E+00   0.00000000000000E+00  -3.39590026611321E-03  -2.45760933634913E-22  -3.39590026611321E-03
     -1.28159904054614E-15   7.28666666666667E-01   7.28666666666667E-01   0.00000000000000E+00   0.00000000000000E+00
      3.39590026611404E-03   1.55880870291382E-20   3.39590026611404E-03  -4.49739501026218E-16   8.00000000000000E+00
      8.00000000000000E+00   0.00000000000000E+00   0.00000000000000E+00   0.00000000000000E+00   0.00000000000000E+00
      0.00000000000000E+00   8.60086366646080E-15
      2.67888888888889E-01
      0.00000000000000E+00   0.00000000000000E+00   0.00000000000000E+00   0.00000000000000E+00  -3.57887184016585E-17
     -8.54396165158787E-16  -8.90184883560445E-16  -6.90476561800812E-15   0.00000000000000E+00   0.00000000000000E+00
      0.00000000000000E+00   0.00000000000000E+00  -3.53650428747709E-03  -2.55951705738560E-22  -3.53650428747709E-03
     -1.28313269936299E-15   8.03666666666667E-01   8.03666666666667E-01   0.00000000000000E+00   0.00000000000000E+00
      3.53650428747797E-03   1.57006422496243E-20   3.53650428747797E-03  -3.69605943556186E-16   8.00000000000000E+00
      8.00000000000000E+00   0.00000000000000E+00   0.00000000000000E+00   0.00000000000000E+00   0.00000000000000E+00
      0.00000000000000E+00   8.55750426092730E-15
      2.92888888888889E-01
      0.00000000000000E+00   0.00000000000000E+00   0.00000000000000E+00   0.00000000000000E+00  -1.85738403857238E-17
     -8.79693381819499E-16  -8.98267222205223E-16  -6.93830349459309E-15   0.00000000000000E+00   0.00000000000000E+00
      0.00000000000000E+00   0.00000000000000E+00  -3.65875182788780E-03  -2.64809395494257E-22  -3.65875182788780E-03
     -1.28475770699220E-15   8.78666666666667E-01   8.78666666666667E-01   0.00000000000000E+00   0.00000000000000E+00
      3.65875182788870E-03   1.57980606176248E-20   3.65875182788870E-03  -2.91494655437779E-16   8.00000000000000E+00
      8.00000000000000E+00   0.00000000000000E+00   0.00000000000000E+00   0.00000000000000E+00   0.00000000000000E+00
      0.00000000000000E+00   8.51455585702306E-15
      3.17888888888889E-01
      0.00000000000000E+00   0.00000000000000E+00   0.00000000000000E+00   0.00000000000000E+00  -9.06035488062482E-18
     -9.06363421742256E-16  -9.15423776622881E-16  -6.97033995600860E-15   0.00000000000000E+00   0.00000000000000E+00
      0.00000000000000E+00   0.00000000000000E+00  -3.76536465608231E-03  -2.72531500431835E-22  -3.76536465608231E-03
     -1.28644684232352E-15   9.53666666666667E-01   9.53666666666667E-01   0.00000000000000E+00   0.00000000000000E+00
      3.76536465608323E-03   1.58830944238618E-20   3.76536465608323E-03  -2.15260502577343E-16   8.00000000000000E+00
      8.00000000000000E+00   0.00000000000000E+00   0.00000000000000E+00   0.00000000000000E+00   0.00000000000000E+00
      0.00000000000000E+00   8.47204730090945E-15
      3.42888888888889E-01
      0.00000000000000E+00   0.00000000000000E+00   0.00000000000000E+00   0.00000000000000E+00   6.34243060003871E-18
     -9.33855545089894E-16  -9.27513114489855E-16  -7.00145257760419E-15   0.00000000000000E+00   0.00000000000000E+00
      0.00000000000000E+00   0.00000000000000E+00  -3.85861714234428E-03  -2.79284695673890E-22  -3.85861714234428E-03
     -1.28817614973173E-15   1.02866666666667E+00   1.02866666666667E+00   0.00000000000000E+00   0.00000000000000E+00
      3.85861714234520E-03   1.59576691477586E-20   3.85861714234520E-03  -1.40378066006048E-16   8.00000000000000E+00
      8.00000000000000E+00   0.00000000000000E+00   0.00000000000000E+00   0.00000000000000E+00   0.00000000000000E+00
      0.00000000000000E+00   8.43000679334196E-15
      3.67888888888889E-01
      0.00000000000000E+00   0.00000000000000E+00   0.00000000000000E+00   0.00000000000000E+00   2.76345160722437E-17
     -9.59318037423976E-16  -9.31683521351732E-16  -7.03223066876272E-15   0.00000000000000E+00   0.00000000000000E+00
      0.00000000000000E+00   0.00000000000000E+00  -3.94044082731719E-03  -2.85208967222608E-22  -3.94044082731719E-03
     -1.28992690523088E-15   1.10366666666667E+00   1.10366666666667E+00   0.00000000000000E+00   0.00000000000000E+00
      3.94044082731812E-03   1.60233259984195E-20   3.94044082731812E-03  -6.62992318236324E-17   8.00000000000000E+00
      8.00000000000000E+00   0.00000000000000E+00   0.00000000000000E+00   0.00000000000000E+00   0.00000000000000E+00
      0.00000000000000E+00   8.38845680581724E-15
      3.92888888888889E-01
      0.00000000000000E+00   0.00000000000000E+00   0.00000000000000E+00   0.00000000000000E+00   6.79545482413459E-18
     -9.82288433605152E-16  -9.75492978781017E-16  -7.06305062751232E-15   0.00000000000000E+00   0.00000000000000E+00
      0.00000000000000E+00   0.00000000000000E+00  -4.01247696967025E-03  -2.90424918027161E-22  -4.01247696967025E-03
     -1.29168680273517E-15   1.17866666666667E+00   1.17866666666667E+00   0.00000000000000E+00   0.00000000000000E+00
      4.01247696967123E-03   1.60813330063262E-20   4.01247696967123E-03   7.32062565376902E-18   8.00000000000000E+00
      8.00000000000000E+00   0.00000000000000E+00   0.00000000000000E+00   0.00000000000000E+00   0.00000000000000E+00
      0.00000000000000E+00   8.34741680459372E-15
      4.17888888888889E-01
      0.00000000000000E+00   0.00000000000000E+00   0.00000000000000E+00   0.00000000000000E+00  -1.04194218238013E-17
     -1.00434113249872E-15  -1.01476055432252E-15  -7.09410561847279E-15   0.00000000000000E+00   0.00000000000000E+00
      0.00000000000000E+00   0.00000000000000E+00  -4.07612969961010E-03  -2.95033998465825E-22  -4.07612969961010E-03
     -1.29344970554051E-15   1.25366666666667E+00   1.25366666666667E+00   0.00000000000000E+00   0.00000000000000E+00
      4.07612969961112E-03   1.61327652886100E-20   4.07612969961112E-03   8.06525216563886E-17   8.00000000000000E+00
      8.00000000000000E+00   0.00000000000000E+00   0.00000000000000E+00   0.00000000000000E+00   0.00000000000000E+00
      0.00000000000000E+00   8.30690280235690E-15
      4.42888888888889E-01
      0.00000000000000E+00   0.00000000000000E+00   0.00000000000000E+00   0.00000000000000E+00  -2.62752292764705E-17
     -1.02793290877995E-15  -1.05420813805642E-15  -7.12550452459389E-15   0.00000000000000E+00   0.00000000000000E+00
      0.00000000000000E+00   0.00000000000000E+00  -4.13259398164246E-03  -2.99122966441495E-22  -4.13259398164246E-03
     -1.29521400300255E-15   1.32866666666667E+00   1.32866666666667E+00   0.00000000000000E+00   0.00000000000000E+00
      4.13259398164352E-03   1.61785247242579E-20   4.13259398164352E-03   1.53787796127571E-16   8.00000000000000E+00
      8.00000000000000E+00   0.00000000000000E+00   0.00000000000000E+00   0.00000000000000E+00   0.00000000000000E+00
      0.00000000000000E+00   8.26693073146885E-15
      4.67888888888889E-01
      0.00000000000000E+00   0.00000000000000E+00   0.00000000000000E+00   0.00000000000000E+00  -8.60732868367589E-18
     -1.05431596410226E-15  -1.06292329278593E-15  -7.15729402343623E-15   0.00000000000000E+00   0.00000000000000E+00
      0.00000000000000E+00   0.00000000000000E+00  -4.18292151870133E-03  -3.02767754182349E-22  -4.18292151870133E-03
     -1.29698111122023E-15   1.40366666666667E+00   1.40366666666667E+00   0.00000000000000E+00   0.00000000000000E+00
      4.18292151870239E-03   1.62194215883785E-20   4.18292151870239E-03   2.26773459053058E-16   8.00000000000000E+00
      8.00000000000000E+00   0.00000000000000E+00   0.00000000000000E+00   0.00000000000000E+00   0.00000000000000E+00
      0.00000000000000E+00   8.22750167560341E-15
      4.92888888888889E-01
      0.00000000000000E+00   0.00000000000000E+00   0.00000000000000E+00   0.00000000000000E+00  -5.88918984500431E-18
     -1.08279486822639E-15  -1.08868405807139E-15  -7.18951637439552E-15   0.00000000000000E+00   0.00000000000000E+00
      0.00000000000000E+00   0.00000000000000E+00  -4.22799747624950E-03  -3.06032965297548E-22  -4.22799747624950E-03
     -1.29875241312874E-15   1.47866666666667E+00   1.47866666666667E+00   0.00000000000000E+00   0.00000000000000E+00
      4.22799747625059E-03   1.62561486615924E-20   4.22799747625059E-03   2.99651383500088E-16   8.00000000000000E+00
      8.00000000000000E+00   0.00000000000000E+00   0.00000000000000E+00   0.00000000000000E+00   0.00000000000000E+00
      0.00000000000000E+00   8.18861740402417E-15
      5.17888888888889E-01
      0.00000000000000E+00   0.00000000000000E+00   0.00000000000000E+00   0.00000000000000E+00  -1.35895870831025E-18
     -1.11389067762842E-15  -1.11524963633673E-15  -7.22220555485415E-15   0.00000000000000E+00   0.00000000000000E+00
      0.00000000000000E+00   0.00000000000000E+00  -4.26857746655161E-03  -3.08973379995617E-22  -4.26857746655161E-03
     -1.30052775999843E-15   1.55366666666667E+00   1.55366666666667E+00   0.00000000000000E+00   0.00000000000000E+00
      4.26857746655273E-03   1.62893054271441E-20   4.26857746655273E-03   3.72459015606483E-16   8.00000000000000E+00
      8.00000000000000E+00   0.00000000000000E+00   0.00000000000000E+00   0.00000000000000E+00   0.00000000000000E+00
      0.00000000000000E+00   8.15027429924609E-15
      5.42888888888889E-01
      0.00000000000000E+00   0.00000000000000E+00   0.00000000000000E+00   0.00000000000000E+00  -5.43616615956672E-18
     -1.15364554979540E-15  -1.15908171595497E-15  -7.25539017757430E-15   0.00000000000000E+00   0.00000000000000E+00
      0.00000000000000E+00   0.00000000000000E+00  -4.30530406095387E-03  -3.11635098515211E-22  -4.30530406095387E-03
     -1.30230498164448E-15   1.62866666666667E+00   1.62866666666667E+00   0.00000000000000E+00   0.00000000000000E+00
      4.30530406095503E-03   1.63194074510056E-20   4.30530406095503E-03   4.45231212853564E-16   8.00000000000000E+00
      8.00000000000000E+00   0.00000000000000E+00   0.00000000000000E+00   0.00000000000000E+00   0.00000000000000E+00
      0.00000000000000E+00   8.11246394636520E-15
      5.67888888888889E-01
      0.00000000000000E+00   0.00000000000000E+00   0.00000000000000E+00   0.00000000000000E+00   2.67284729558990E-17
     -1.21636678970056E-15  -1.18963831674466E-15  -7.28909128452016E-15   0.00000000000000E+00   0.00000000000000E+00
      0.00000000000000E+00   0.00000000000000E+00  -4.33872421994270E-03  -3.14058220421996E-22  -4.33872421994270E-03
     -1.30408075098983E-15   1.70366666666667E+00   1.70366666666667E+00   0.00000000000000E+00   0.00000000000000E+00
      4.33872421994389E-03   1.63468945363445E-20   4.33872421994389E-03   5.17998289084513E-16   8.00000000000000E+00
      8.00000000000000E+00   0.00000000000000E+00   0.00000000000000E+00   0.00000000000000E+00   0.00000000000000E+00
      0.00000000000000E+00   8.07517374642547E-15
      5.92888888888889E-01
      0.00000000000000E+00   0.00000000000000E+00   0.00000000000000E+00   0.00000000000000E+00   1.13256884186626E-17
     -1.31453896883222E-15  -1.30321328041355E-15  -7.32331871065290E-15   0.00000000000000E+00   0.00000000000000E+00
      0.00000000000000E+00   0.00000000000000E+00  -4.36930507931455E-03  -3.16276306499167E-22  -4.36930507931455E-03
     -1.30585194950116E-15   1.77866666666667E+00   1.77866666666667E+00   0.00000000000000E+00   0.00000000000000E+00
      4.36930507931586E-03   1.63721413313731E-20   4.36930507931586E-03   5.90783083834388E-16   8.00000000000000E+00
      8.00000000000000E+00   0.00000000000000E+00   0.00000000000000E+00   0.00000000000000E+00   0.00000000000000E+00
      0.00000000000000E+00   8.03838757631967E-15
      6.17888888888889E-01
      0.00000000000000E+00   0.00000000000000E+00   0.00000000000000E+00   0.00000000000000E+00  -1.58556962650465E-17
     -1.42921726543113E-15  -1.44507296169618E-15  -7.35806892756912E-15   0.00000000000000E+00   0.00000000000000E+00
      0.00000000000000E+00   0.00000000000000E+00  -4.39744655682751E-03  -3.18318139272604E-22  -4.39744655682751E-03
     -1.30761665157144E-15   1.85366666666667E+00   1.85366666666667E+00   0.00000000000000E+00   0.00000000000000E+00
      4.39744655682896E-03   1.63954666634597E-20   4.39744655682896E-03   6.63598953267843E-16   8.00000000000000E+00
      8.00000000000000E+00   0.00000000000000E+00   0.00000000000000E+00   0.00000000000000E+00   0.00000000000000E+00
      0.00000000000000E+00   8.00208662587271E-15
      6.42888888888889E-01
      0.00000000000000E+00   0.00000000000000E+00   0.00000000000000E+00   0.00000000000000E+00   2.26512659789351E-17
     -1.52175516059568E-15  -1.49910389461674E-15  -7.39332549164828E-15   0.00000000000000E+00   0.00000000000000E+00
      0.00000000000000E+00   0.00000000000000E+00  -4.42349085629571E-03  -3.20209250788534E-22  -4.42349085629571E-03
     -1.30937444886511E-15   1.92866666666667E+00   1.92866666666667E+00   0.00000000000000E+00   0.00000000000000E+00
      4.42349085629721E-03   1.64171423593774E-20   4.42349085629721E-03   7.36449590856508E-16   8.00000000000000E+00
      8.00000000000000E+00   0.00000000000000E+00   0.00000000000000E+00   0.00000000000000E+00   0.00000000000000E+00
      0.00000000000000E+00   7.96625034965688E-15
      6.67888888888889E-01
      0.00000000000000E+00   0.00000000000000E+00   0.00000000000000E+00   0.00000000000000E+00  -7.24825721179658E-18
     -1.58172847333824E-15  -1.58897673055004E-15  -7.42906149721683E-15   0.00000000000000E+00   0.00000000000000E+00
      0.00000000000000E+00   0.00000000000000E+00  -4.44772993636104E-03  -3.21969932070011E-22  -4.44772993636104E-03
     -1.31112628518176E-15   2.00366666666667E+00   2.00366666666667E+00   0.00000000000000E+00   0.00000000000000E+00
      4.44772993636263E-03   1.64373992012066E-20   4.44772993636263E-03   8.09330474365181E-16   8.00000000000000E+00
      8.00000000000000E+00   0.00000000000000E+00   0.00000000000000E+00   0.00000000000000E+00   0.00000000000000E+00
      0.00000000000000E+00   7.93085730803339E-15
      6.92888888888889E-01
      0.00000000000000E+00   0.00000000000000E+00   0.00000000000000E+00   0.00000000000000E+00  -1.94798801998677E-17
     -1.61846346711684E-15  -1.63794334731670E-15  -7.46524275466378E-15   0.00000000000000E+00   0.00000000000000E+00
      0.00000000000000E+00   0.00000000000000E+00  -4.47041186576990E-03  -3.23618665816267E-22  -4.47041186576990E-03
     -1.31287404105155E-15   2.07866666666667E+00   2.07866666666667E+00   0.00000000000000E+00   0.00000000000000E+00
      4.47041186577153E-03   1.64564327678117E-20   4.47041186577153E-03   8.82231066116374E-16   8.00000000000000E+00
      8.00000000000000E+00   0.00000000000000E+00   0.00000000000000E+00   0.00000000000000E+00   0.00000000000000E+00
      0.00000000000000E+00   7.89588572959895E-15
      7.17888888888889E-01
      0.00000000000000E+00   0.00000000000000E+00   0.00000000000000E+00   0.00000000000000E+00   4.16782361384381E-17
     -1.63974838016516E-15  -1.59807014402672E-15  -7.50183067858598E-15   0.00000000000000E+00   0.00000000000000E+00
      0.00000000000000E+00   0.00000000000000E+00  -4.49174652604327E-03  -3.25169997605325E-22  -4.49174652604327E-03
     -1.31462002219871E-15   2.15366666666667E+00   2.15366666666667E+00   0.00000000000000E+00   0.00000000000000E+00
      4.49174652604486E-03   1.64744080419296E-20   4.49174652604486E-03   9.55136959747605E-16   8.00000000000000E+00
      8.00000000000000E+00   0.00000000000000E+00   0.00000000000000E+00   0.00000000000000E+00   0.00000000000000E+00
      0.00000000000000E+00   7.86131374103708E-15
      7.42888888888889E-01
      0.00000000000000E+00   0.00000000000000E+00   0.00000000000000E+00   0.00000000000000E+00  -6.79523344626163E-18
     -1.65223383901596E-15  -1.65902907246222E-15  -7.53878443308045E-15   0.00000000000000E+00   0.00000000000000E+00
      0.00000000000000E+00   0.00000000000000E+00  -4.51191083946155E-03  -3.26637453160385E-22  -4.51191083946155E-03
     -1.31636645477255E-15   2.22866666666667E+00   2.22866666666667E+00   0.00000000000000E+00   0.00000000000000E+00
      4.51191083946321E-03   1.64914638435591E-20   4.51191083946321E-03   1.02803160809356E-15   8.00000000000000E+00
      8.00000000000000E+00   0.00000000000000E+00   0.00000000000000E+00   0.00000000000000E+00   0.00000000000000E+00
      0.00000000000000E+00   7.82711927975943E-15
      7.67888888888889E-01
      0.00000000000000E+00   0.00000000000000E+00   0.00000000000000E+00   0.00000000000000E+00  -1.76677872051419E-17
     -1.66177027418573E-15  -1.67943806139088E-15  -7.57606221786871E-15   0.00000000000000E+00   0.00000000000000E+00
      0.00000000000000E+00   0.00000000000000E+00  -4.53105356873968E-03  -3.28031282342265E-22  -4.53105356873968E-03
     -1.31811509557033E-15   2.30366666666667E+00   2.30366666666667E+00   0.00000000000000E+00   0.00000000000000E+00
      4.53105356874136E-03   1.65077168187339E-20   4.53105356874136E-03   1.10089748400977E-15   8.00000000000000E+00
      8.00000000000000E+00   0.00000000000000E+00   0.00000000000000E+00   0.00000000000000E+00   0.00000000000000E+00
      0.00000000000000E+00   7.79327982942926E-15
      7.92888888888889E-01
      0.00000000000000E+00   0.00000000000000E+00   0.00000000000000E+00   0.00000000000000E+00   9.63113483413620E-14
     -1.67225571992609E-15   9.46390926214359E-14  -7.61362178891444E-15   0.00000000000000E+00   0.00000000000000E+00
      0.00000000000000E+00   0.00000000000000E+00  -4.54929967400782E-03  -3.29350646741893E-22  -4.54929967400782E-03
     -1.31986706299931E-15   2.37866666666667E+00   2.37866666666667E+00   0.00000000000000E+00   0.00000000000000E+00
      4.54929967391318E-03   1.65199242990027E-20   4.54929967391318E-03   1.17371663688385E-15   8.00000000000000E+00
      8.00000000000000E+00   0.00000000000000E+00   0.00000000000000E+00   0.00000000000000E+00   0.00000000000000E+00
      0.00000000000000E+00   7.75977221502990E-15
      8.17888888888889E-01
      0.00000000000000E+00   0.00000000000000E+00   0.00000000000000E+00   0.00000000000000E+00   5.46961949782308E-14
     -1.68540135674837E-15   5.30107936214825E-14  -7.65142055175114E-15   0.00000000000000E+00   0.00000000000000E+00
      0.00000000000000E+00   0.00000000000000E+00  -4.56675414307917E-03  -3.30626072298410E-22  -4.56675414307917E-03
     -1.32162291912828E-15   2.45366666666667E+00   2.45366666666667E+00   0.00000000000000E+00   0.00000000000000E+00
      4.56675414302616E-03   1.65155059357562E-20   4.56675414302616E-03   1.24647079337838E-15   8.00000000000000E+00
      8.00000000000000E+00   0.00000000000000E+00   0.00000000000000E+00   0.00000000000000E+00   0.00000000000000E+00
      0.00000000000000E+00   7.72657267750104E-15
      8.42888888888889E-01
      0.00000000000000E+00   0.00000000000000E+00   0.00000000000000E+00   0.00000000000000E+00   2.97210324511282E-14
     -1.70133249727950E-15   2.80196999538487E-14  -7.68941560824547E-15   0.00000000000000E+00   0.00000000000000E+00
      0.00000000000000E+00   0.00000000000000E+00  -4.58350516213754E-03  -3.31849904337690E-22  -4.58350516213754E-03
     -1.32338291068277E-15   2.52866666666667E+00   2.52866666666667E+00   0.00000000000000E+00   0.00000000000000E+00
      4.58350516210952E-03   1.65403274771223E-20   4.58350516210952E-03   1.31914118665208E-15   8.00000000000000E+00
      8.00000000000000E+00   0.00000000000000E+00   0.00000000000000E+00   0.00000000000000E+00   0.00000000000000E+00
      0.00000000000000E+00   7.69365733227615E-15
      8.67888888888889E-01
      0.00000000000000E+00   0.00000000000000E+00   0.00000000000000E+00   0.00000000000000E+00   1.57457233853951E-14