DF-ISE text

Info {
  version   = 1.0
  type      = xyplot
  datasets  = [
    "time"
    "substrate OuterVoltage" "substrate InnerVoltage" "substrate QuasiFermiPotential" "substrate DisplacementCurrent" "substrate eCurrent"
    "substrate hCurrent" "substrate TotalCurrent" "substrate Charge" "source OuterVoltage" "source InnerVoltage"
    "source QuasiFermiPotential" "source DisplacementCurrent" "source eCurrent" "source hCurrent" "source TotalCurrent"
    "source Charge" "drain OuterVoltage" "drain InnerVoltage" "drain QuasiFermiPotential" "drain DisplacementCurrent"
    "drain eCurrent" "drain hCurrent" "drain TotalCurrent" "drain Charge" "gate OuterVoltage"
    "gate InnerVoltage" "gate QuasiFermiPotential" "gate DisplacementCurrent" "gate eCurrent" "gate hCurrent"
    "gate TotalCurrent" "gate Charge" ]
  functions = [
    Time
    OuterVoltage InnerVoltage QuasiFermiPotential DisplacementCurrent eCurrent
    hCurrent TotalCurrent Charge OuterVoltage InnerVoltage
    QuasiFermiPotential DisplacementCurrent eCurrent hCurrent TotalCurrent
    Charge OuterVoltage InnerVoltage QuasiFermiPotential DisplacementCurrent
    eCurrent hCurrent TotalCurrent Charge OuterVoltage
    InnerVoltage QuasiFermiPotential DisplacementCurrent eCurrent hCurrent
    TotalCurrent Charge ]
}

Data {
      0.00000000000000E+00
      0.00000000000000E+00   0.00000000000000E+00   0.00000000000000E+00   0.00000000000000E+00  -4.96057326519835E-23
      2.54055954260713E-25  -4.93516766977228E-23  -3.48452548559597E-15   0.00000000000000E+00   0.00000000000000E+00
      0.00000000000000E+00   0.00000000000000E+00   1.55433808295971E-23  -1.04510118735470E-25   1.54388707108616E-23
      1.63582803925397E-15   0.00000000000000E+00   0.00000000000000E+00   0.00000000000000E+00   0.00000000000000E+00
      3.40623516072775E-23  -1.49545620416230E-25   3.39128059868613E-23   1.63582803925396E-15   0.00000000000000E+00
      0.00000000000000E+00   0.00000000000000E+00   0.00000000000000E+00   0.00000000000000E+00   0.00000000000000E+00
      0.00000000000000E+00   2.12869407088036E-16
      1.00000000000000E-02
      0.00000000000000E+00   0.00000000000000E+00   0.00000000000000E+00   0.00000000000000E+00   4.54203939184613E-19
     -2.52313340291973E-17  -2.47771300900127E-17  -3.51931129806128E-15   0.00000000000000E+00   0.00000000000000E+00
      0.00000000000000E+00   0.00000000000000E+00  -1.38811409354037E-19   2.40992461962878E-25  -1.38811168361575E-19
      1.63582803925395E-15   3.00000000000000E-02   3.00000000000000E-02   0.00000000000000E+00   0.00000000000000E+00
      2.48929435424055E-17   2.29977159687088E-20   2.49159412583742E-17   1.67323379370288E-15   0.00000000000000E+00
      0.00000000000000E+00   0.00000000000000E+00   0.00000000000000E+00   0.00000000000000E+00   0.00000000000000E+00
      0.00000000000000E+00   2.10249465104452E-16
      2.33333333333333E-02
      0.00000000000000E+00   0.00000000000000E+00   0.00000000000000E+00   0.00000000000000E+00   2.14352188794202E-17
     -5.43975313197727E-17  -3.29623124403526E-17  -3.56481115372011E-15   0.00000000000000E+00   0.00000000000000E+00
      0.00000000000000E+00   0.00000000000000E+00  -1.84302523894517E-19   1.35717936103106E-25  -1.84302388176581E-19
      1.63582803925399E-15   7.00000000000000E-02   7.00000000000000E-02   0.00000000000000E+00   0.00000000000000E+00
      3.31456704607436E-17   9.44367785523509E-22   3.31466148285291E-17   1.72221438825025E-15   0.00000000000000E+00
      0.00000000000000E+00   0.00000000000000E+00   0.00000000000000E+00   0.00000000000000E+00   0.00000000000000E+00
      0.00000000000000E+00   2.06768726215864E-16
      4.28888888888889E-02
      0.00000000000000E+00   0.00000000000000E+00   0.00000000000000E+00   0.00000000000000E+00  -5.82988907416707E-20
     -1.06033395171492E-16  -1.06091694062234E-16  -3.62970514679392E-15   0.00000000000000E+00   0.00000000000000E+00
      0.00000000000000E+00   0.00000000000000E+00  -1.91628490968981E-19   2.90437736657065E-25  -1.91628200531245E-19
      1.63582803925391E-15   1.28666666666667E-01   1.28666666666667E-01   0.00000000000000E+00   0.00000000000000E+00
      1.06241919530710E-16   4.14027320549440E-20   1.06283322262765E-16   1.79218526163026E-15   0.00000000000000E+00
      0.00000000000000E+00   0.00000000000000E+00   0.00000000000000E+00   0.00000000000000E+00   0.00000000000000E+00
      0.00000000000000E+00   2.01691845909745E-16
      6.78888888888889E-02
      0.00000000000000E+00   0.00000000000000E+00   0.00000000000000E+00   0.00000000000000E+00  -5.85700568137323E-20
     -2.15896097526548E-16  -2.15954667583362E-16  -3.70954601680155E-15   0.00000000000000E+00   0.00000000000000E+00
      0.00000000000000E+00   0.00000000000000E+00  -1.91518735109237E-19   1.89661682910935E-25  -1.91518545447554E-19
      1.63582803925386E-15   2.03666666666667E-01   2.03666666666667E-01   0.00000000000000E+00   0.00000000000000E+00
      2.16108545966660E-16   3.76401621494569E-20   2.16146186128809E-16   1.87846183765448E-15   0.00000000000000E+00
      0.00000000000000E+00   0.00000000000000E+00   0.00000000000000E+00   0.00000000000000E+00   0.00000000000000E+00
      0.00000000000000E+00   1.95256139893215E-16
      9.28888888888889E-02
      0.00000000000000E+00   0.00000000000000E+00   0.00000000000000E+00   0.00000000000000E+00  -5.75337109337035E-20
     -3.49462419259197E-16  -3.49519952970131E-16  -3.78629255805997E-15   0.00000000000000E+00   0.00000000000000E+00
      0.00000000000000E+00   0.00000000000000E+00  -1.91945532852681E-19  -8.10867724679520E-27  -1.91945540961359E-19
      1.63582803925380E-15   2.78666666666667E-01   2.78666666666667E-01   0.00000000000000E+00   0.00000000000000E+00
      3.49689030606033E-16   2.28679050597219E-20   3.49711898511092E-16   1.96157740529088E-15   0.00000000000000E+00
      0.00000000000000E+00   0.00000000000000E+00   0.00000000000000E+00   0.00000000000000E+00   0.00000000000000E+00
      0.00000000000000E+00   1.88887113515294E-16
      1.17888888888889E-01
      0.00000000000000E+00   0.00000000000000E+00   0.00000000000000E+00   0.00000000000000E+00  -5.90081889707867E-20
     -4.37132949433241E-16  -4.37191957622212E-16  -3.86070206920796E-15   0.00000000000000E+00   0.00000000000000E+00
      0.00000000000000E+00   0.00000000000000E+00  -1.92663185384319E-19  -1.22930460085606E-25  -1.92663308314779E-19
      1.63582803925376E-15   3.53666666666667E-01   3.53666666666667E-01   0.00000000000000E+00   0.00000000000000E+00
      4.37347159076428E-16   3.74618540984926E-20   4.37384620930527E-16   2.04229156470055E-15   0.00000000000000E+00
      0.00000000000000E+00   0.00000000000000E+00   0.00000000000000E+00   0.00000000000000E+00   0.00000000000000E+00
      0.00000000000000E+00   1.82582465253650E-16
      1.42888888888889E-01
      0.00000000000000E+00   0.00000000000000E+00   0.00000000000000E+00   0.00000000000000E+00  -5.86652243725179E-20
     -4.86204898243098E-16  -4.86263563467471E-16  -3.93354141175547E-15   0.00000000000000E+00   0.00000000000000E+00
      0.00000000000000E+00   0.00000000000000E+00  -1.92712464170081E-19   2.21933909054335E-25  -1.92712242236172E-19
      1.63582803925373E-15   4.28666666666667E-01   4.28666666666667E-01   0.00000000000000E+00   0.00000000000000E+00
      4.86419936453999E-16   3.63392557071452E-20   4.86456275709707E-16   2.12138527515278E-15   0.00000000000000E+00
      0.00000000000000E+00   0.00000000000000E+00   0.00000000000000E+00   0.00000000000000E+00   0.00000000000000E+00
      0.00000000000000E+00   1.76328097348949E-16
      1.67888888888889E-01
      0.00000000000000E+00   0.00000000000000E+00   0.00000000000000E+00   0.00000000000000E+00  -5.88192195569227E-20
     -5.25995791514440E-16  -5.26054610733997E-16  -4.00535351510006E-15   0.00000000000000E+00   0.00000000000000E+00
      0.00000000000000E+00   0.00000000000000E+00  -1.93200345823688E-19   2.34365340684933E-26  -1.93200322387154E-19
      1.63582803925371E-15   5.03666666666667E-01   5.03666666666667E-01   0.00000000000000E+00   0.00000000000000E+00
      5.26210962427828E-16   3.68486285561291E-20   5.26247811056384E-16   2.19942281780881E-15   0.00000000000000E+00
      0.00000000000000E+00   0.00000000000000E+00   0.00000000000000E+00   0.00000000000000E+00   0.00000000000000E+00
      0.00000000000000E+00   1.70102658037534E-16
      1.92888888888889E-01
      0.00000000000000E+00   0.00000000000000E+00   0.00000000000000E+00   0.00000000000000E+00  -5.89876901409903E-20
     -5.59867535799459E-16  -5.59926523489600E-16  -4.07644844338028E-15   0.00000000000000E+00   0.00000000000000E+00
      0.00000000000000E+00   0.00000000000000E+00  -1.93555535250428E-19  -2.41899085603680E-25  -1.93555777149513E-19
      1.63582803925370E-15   5.78666666666667E-01   5.78666666666667E-01   0.00000000000000E+00   0.00000000000000E+00
      5.60083243082740E-16   3.68361840085083E-20   5.60120079266749E-16   2.27673399770379E-15   0.00000000000000E+00
      0.00000000000000E+00   0.00000000000000E+00   0.00000000000000E+00   0.00000000000000E+00   0.00000000000000E+00
      0.00000000000000E+00   1.63886406422792E-16
      2.17888888888889E-01
      0.00000000000000E+00   0.00000000000000E+00   0.00000000000000E+00   0.00000000000000E+00  -5.92001873144070E-20
     -5.88480230072244E-16  -5.88539430259558E-16  -4.14697798143701E-15   0.00000000000000E+00   0.00000000000000E+00
      0.00000000000000E+00   0.00000000000000E+00  -1.94022222468894E-19  -1.77299606929951E-25  -1.94022399768501E-19
      1.63582803925368E-15   6.53666666666667E-01   6.53666666666667E-01   0.00000000000000E+00   0.00000000000000E+00
      5.88696635833731E-16   3.68168255953916E-20   5.88733452659327E-16   2.35348393325549E-15   0.00000000000000E+00
      0.00000000000000E+00   0.00000000000000E+00   0.00000000000000E+00   0.00000000000000E+00   0.00000000000000E+00
      0.00000000000000E+00   1.57666008927840E-16
      2.42888888888889E-01
      0.00000000000000E+00   0.00000000000000E+00   0.00000000000000E+00   0.00000000000000E+00  -6.42274013903273E-20
     -6.16417395846072E-16  -6.16481623247462E-16  -4.21700164166476E-15   0.00000000000000E+00   0.00000000000000E+00
      0.00000000000000E+00   0.00000000000000E+00  -1.94499392962446E-19  -4.05597702322064E-25  -1.94499798560148E-19
      1.63582803925367E-15   7.28666666666667E-01   7.28666666666667E-01   0.00000000000000E+00   0.00000000000000E+00
      6.16639348158435E-16   3.67748875876815E-20   6.16676123046022E-16   2.42973945189205E-15   0.00000000000000E+00
      0.00000000000000E+00   0.00000000000000E+00   0.00000000000000E+00   0.00000000000000E+00   0.00000000000000E+00
      0.00000000000000E+00   1.51434150519041E-16
      2.67888888888889E-01
      0.00000000000000E+00   0.00000000000000E+00   0.00000000000000E+00   0.00000000000000E+00  -9.32334501284436E-20
     -6.48208052574116E-16  -6.48301286024244E-16  -4.28652890967026E-15   0.00000000000000E+00   0.00000000000000E+00
      0.00000000000000E+00   0.00000000000000E+00  -1.94694823376242E-19  -1.09326501767689E-25  -1.94694932702743E-19
      1.63582803925365E-15   8.03666666666667E-01   8.03666666666667E-01   0.00000000000000E+00   0.00000000000000E+00
      6.48459000413341E-16   3.69805436060124E-20   6.48495980956947E-16   2.50551345487072E-15   0.00000000000000E+00
      0.00000000000000E+00   0.00000000000000E+00   0.00000000000000E+00   0.00000000000000E+00   0.00000000000000E+00
      0.00000000000000E+00   1.45187415545890E-16
      2.92888888888889E-01
      0.00000000000000E+00   0.00000000000000E+00   0.00000000000000E+00   0.00000000000000E+00  -5.75599380945499E-20
     -6.91048184216025E-16  -6.91105744154119E-16  -4.35554372375412E-15   0.00000000000000E+00   0.00000000000000E+00
      0.00000000000000E+00   0.00000000000000E+00  -1.95301795261314E-19  -3.68775441959925E-25  -1.95302164036756E-19
      1.63582803925363E-15   8.78666666666667E-01   8.78666666666667E-01   0.00000000000000E+00   0.00000000000000E+00
      6.91264395673549E-16   3.66506446076842E-20   6.91301046318157E-16   2.58079115114557E-15   0.00000000000000E+00
      0.00000000000000E+00   0.00000000000000E+00   0.00000000000000E+00   0.00000000000000E+00   0.00000000000000E+00
      0.00000000000000E+00   1.38924533354915E-16
      3.17888888888889E-01
      0.00000000000000E+00   0.00000000000000E+00   0.00000000000000E+00   0.00000000000000E+00  -5.93784195404008E-20
     -7.51359551731142E-16  -7.51418930150682E-16  -4.42401724139950E-15   0.00000000000000E+00   0.00000000000000E+00
      0.00000000000000E+00   0.00000000000000E+00  -1.95474498774971E-19   1.99636047074634E-25  -1.95474299138924E-19
      1.63582803925360E-15   9.53666666666667E-01   9.53666666666667E-01   0.00000000000000E+00   0.00000000000000E+00
      7.51578053035833E-16   3.63514139875040E-20   7.51614404449821E-16   2.65554386725529E-15   0.00000000000000E+00
      0.00000000000000E+00   0.00000000000000E+00   0.00000000000000E+00   0.00000000000000E+00   0.00000000000000E+00
      0.00000000000000E+00   1.32645334890613E-16
      3.42888888888889E-01
      0.00000000000000E+00   0.00000000000000E+00   0.00000000000000E+00   0.00000000000000E+00  -5.96335398299467E-20
     -8.32763189481361E-16  -8.32822823021191E-16  -4.49191028542714E-15   0.00000000000000E+00   0.00000000000000E+00
      0.00000000000000E+00   0.00000000000000E+00  -1.95690850960748E-19   2.89587028387401E-25  -1.95690561373720E-19
      1.63582803925357E-15   1.02866666666667E+00   1.02866666666667E+00   0.00000000000000E+00   0.00000000000000E+00
      8.32981769418546E-16   3.67441640195149E-20   8.33018513582565E-16   2.72973204432423E-15   0.00000000000000E+00
      0.00000000000000E+00   0.00000000000000E+00   0.00000000000000E+00   0.00000000000000E+00   0.00000000000000E+00
      0.00000000000000E+00   1.26350201849345E-16
      3.67888888888889E-01
      0.00000000000000E+00   0.00000000000000E+00   0.00000000000000E+00   0.00000000000000E+00  -5.94466861621727E-20
     -9.35794964849556E-16  -9.35854411535718E-16  -4.55916561437459E-15   0.00000000000000E+00   0.00000000000000E+00
      0.00000000000000E+00   0.00000000000000E+00  -1.96338297737682E-19  -3.68468380128091E-25  -1.96338666206063E-19
      1.63582803925352E-15   1.10366666666667E+00   1.10366666666667E+00   0.00000000000000E+00   0.00000000000000E+00
      9.36014009418370E-16   3.67407835529129E-20   9.36050750201923E-16   2.80329779800536E-15   0.00000000000000E+00
      0.00000000000000E+00   0.00000000000000E+00   0.00000000000000E+00   0.00000000000000E+00   0.00000000000000E+00
      0.00000000000000E+00   1.20039777115717E-16
      3.92888888888889E-01
      0.00000000000000E+00   0.00000000000000E+00   0.00000000000000E+00   0.00000000000000E+00  -5.96267571737427E-20
     -1.06194967348584E-15  -1.06200930024302E-15  -4.62569471769405E-15   0.00000000000000E+00   0.00000000000000E+00
      0.00000000000000E+00   0.00000000000000E+00  -1.96487057291739E-19  -1.38182161980199E-25  -1.96487195473901E-19
      1.63582803925409E-15   1.17866666666667E+00   1.17866666666667E+00   0.00000000000000E+00   0.00000000000000E+00
      1.06216935939758E-15   3.64280409149063E-20   1.06220578743849E-15   2.87615187427093E-15   0.00000000000000E+00
      0.00000000000000E+00   0.00000000000000E+00   0.00000000000000E+00   0.00000000000000E+00   0.00000000000000E+00
      0.00000000000000E+00   1.13714804169034E-16
      4.17888888888889E-01
      0.00000000000000E+00   0.00000000000000E+00   0.00000000000000E+00   0.00000000000000E+00  -5.97526411466803E-20
     -1.21133056796468E-15  -1.21139032060582E-15  -4.69136684251496E-15   0.00000000000000E+00   0.00000000000000E+00
      0.00000000000000E+00   0.00000000000000E+00  -1.96894823746441E-19   7.23911854250089E-26  -1.96894751355255E-19
      1.63582803925339E-15   1.25366666666667E+00   1.25366666666667E+00   0.00000000000000E+00   0.00000000000000E+00
      1.21155047070757E-15   3.67446496081656E-20   1.21158721535718E-15   2.94816276581078E-15   0.00000000000000E+00
      0.00000000000000E+00   0.00000000000000E+00   0.00000000000000E+00   0.00000000000000E+00   0.00000000000000E+00
      0.00000000000000E+00   1.07376037450786E-16
      4.42888888888889E-01
      0.00000000000000E+00   0.00000000000000E+00   0.00000000000000E+00   0.00000000000000E+00  -5.96053767924083E-20
     -1.36337126149252E-15  -1.36343086686931E-15  -4.75600753488380E-15   0.00000000000000E+00   0.00000000000000E+00
      0.00000000000000E+00   0.00000000000000E+00  -1.97477279630718E-19  -3.95266599890593E-25  -1.97477674897318E-19
      1.63582803925332E-15   1.32866666666667E+00   1.32866666666667E+00   0.00000000000000E+00   0.00000000000000E+00
      1.36359159405334E-15   3.67504908712591E-20   1.36362834454421E-15   3.01915530062546E-15   0.00000000000000E+00
      0.00000000000000E+00   0.00000000000000E+00   0.00000000000000E+00   0.00000000000000E+00   0.00000000000000E+00
      0.00000000000000E+00   1.01024195005016E-16
      4.67888888888889E-01
      0.00000000000000E+00   0.00000000000000E+00   0.00000000000000E+00   0.00000000000000E+00  -5.99205710155651E-20
     -1.48427945901641E-15  -1.48433937958742E-15  -4.81941721253535E-15   0.00000000000000E+00   0.00000000000000E+00
      0.00000000000000E+00   0.00000000000000E+00  -1.97598970426000E-19  -2.46215056991932E-26  -1.97598995047505E-19
      1.63582803925327E-15   1.40366666666667E+00   1.40366666666667E+00   0.00000000000000E+00   0.00000000000000E+00
      1.48450022088753E-15   3.67576949430463E-20   1.48453697858247E-15   3.08892923918156E-15   0.00000000000000E+00
      0.00000000000000E+00   0.00000000000000E+00   0.00000000000000E+00   0.00000000000000E+00   0.00000000000000E+00
      0.00000000000000E+00   9.46599341005149E-17
      4.92888888888889E-01
      0.00000000000000E+00   0.00000000000000E+00   0.00000000000000E+00   0.00000000000000E+00  -5.99395639511720E-20
     -1.56354345496202E-15  -1.56360339452597E-15  -4.88142446133329E-15   0.00000000000000E+00   0.00000000000000E+00
      0.00000000000000E+00   0.00000000000000E+00  -1.98015320544640E-19  -4.00924008995168E-25  -1.98015721468648E-19
      1.63582803925323E-15   1.47866666666667E+00   1.47866666666667E+00   0.00000000000000E+00   0.00000000000000E+00
      1.56376464460917E-15   3.67656382668556E-20   1.56380141024744E-15   3.15731258366186E-15   0.00000000000000E+00
      0.00000000000000E+00   0.00000000000000E+00   0.00000000000000E+00   0.00000000000000E+00   0.00000000000000E+00
      0.00000000000000E+00   8.82838384182052E-17
      5.17888888888889E-01
      0.00000000000000E+00   0.00000000000000E+00   0.00000000000000E+00   0.00000000000000E+00  -6.00479326633471E-20
     -1.61465043893937E-15  -1.61471048687203E-15  -4.94197114188264E-15   0.00000000000000E+00   0.00000000000000E+00
      0.00000000000000E+00   0.00000000000000E+00  -1.98337956381203E-19   7.66530817423601E-26  -1.98337879728121E-19
      1.63582803925321E-15   1.55366666666667E+00   1.55366666666667E+00   0.00000000000000E+00   0.00000000000000E+00
      1.61487205102027E-15   3.67737314969906E-20   1.61490882475176E-15   3.22424669077130E-15   0.00000000000000E+00
      0.00000000000000E+00   0.00000000000000E+00   0.00000000000000E+00   0.00000000000000E+00   0.00000000000000E+00
      0.00000000000000E+00   8.18964118581293E-17
      5.42888888888889E-01
      0.00000000000000E+00   0.00000000000000E+00   0.00000000000000E+00   0.00000000000000E+00  -5.99008432432278E-20
     -1.65211313319191E-15  -1.65217303403515E-15  -5.00117408795371E-15   0.00000000000000E+00   0.00000000000000E+00
      0.00000000000000E+00   0.00000000000000E+00  -1.98909794499890E-19  -5.05475733350840E-25  -1.98910299975623E-19
      1.63582803925319E-15   1.62866666666667E+00   1.62866666666667E+00   0.00000000000000E+00   0.00000000000000E+00
      1.65233516266463E-15   3.67816704930560E-20   1.65237194433513E-15   3.28984797187970E-15   0.00000000000000E+00
      0.00000000000000E+00   0.00000000000000E+00   0.00000000000000E+00   0.00000000000000E+00   0.00000000000000E+00
      0.00000000000000E+00   7.54980768208231E-17
      5.67888888888889E-01
      0.00000000000000E+00   0.00000000000000E+00   0.00000000000000E+00   0.00000000000000E+00  -6.00746846270985E-20
     -1.68231693141795E-15  -1.68237700610258E-15  -5.05929081872097E-15   0.00000000000000E+00   0.00000000000000E+00
      0.00000000000000E+00   0.00000000000000E+00  -1.99153113671955E-19   1.36988196785624E-25  -1.99152976683759E-19
      1.63582803925317E-15   1.70366666666667E+00   1.70366666666667E+00   0.00000000000000E+00   0.00000000000000E+00
      1.68253936976359E-15   3.67893156682544E-20   1.68257615907926E-15   3.35437360464615E-15   0.00000000000000E+00
      0.00000000000000E+00   0.00000000000000E+00   0.00000000000000E+00   0.00000000000000E+00   0.00000000000000E+00
      0.00000000000000E+00   6.90891748216455E-17
      5.92888888888889E-01
      0.00000000000000E+00   0.00000000000000E+00   0.00000000000000E+00   0.00000000000000E+00  -6.00032569519890E-20
     -1.70535202927390E-15  -1.70541203253085E-15  -5.11660920652710E-15   0.00000000000000E+00   0.00000000000000E+00
      0.00000000000000E+00   0.00000000000000E+00  -1.99632999761484E-19  -2.51670815156558E-25  -1.99633251432299E-19
      1.63582803925316E-15   1.77866666666667E+00   1.77866666666667E+00   0.00000000000000E+00   0.00000000000000E+00
      1.70557486914228E-15   3.67966400008540E-20   1.70561166578228E-15   3.41811119965213E-15   0.00000000000000E+00
      0.00000000000000E+00   0.00000000000000E+00   0.00000000000000E+00   0.00000000000000E+00   0.00000000000000E+00
      0.00000000000000E+00   6.26699676218053E-17
      6.17888888888889E-01
      0.00000000000000E+00   0.00000000000000E+00   0.00000000000000E+00   0.00000000000000E+00  -6.01229397978700E-20
     -1.72100957358008E-15  -1.72106969651988E-15  -5.17335967102689E-15   0.00000000000000E+00   0.00000000000000E+00
      0.00000000000000E+00   0.00000000000000E+00  -1.99912099092949E-19  -1.54455804056591E-25  -1.99912253548753E-19
      1.63582803925315E-15   1.85366666666667E+00   1.85366666666667E+00   0.00000000000000E+00   0.00000000000000E+00
      1.72123280513118E-15   3.68036422518715E-20   1.72126960877343E-15   3.48129099234189E-15   0.00000000000000E+00
      0.00000000000000E+00   0.00000000000000E+00   0.00000000000000E+00   0.00000000000000E+00   0.00000000000000E+00
      0.00000000000000E+00   5.62406394318449E-17
      6.42888888888889E-01
      0.00000000000000E+00   0.00000000000000E+00   0.00000000000000E+00   0.00000000000000E+00  -6.03536213408332E-20
     -1.73119882813904E-15  -1.73125918176038E-15  -5.22969460408285E-15   0.00000000000000E+00   0.00000000000000E+00
      0.00000000000000E+00   0.00000000000000E+00  -2.00069861372648E-19   3.39510171869480E-25  -2.00069521862476E-19
      1.63582803925315E-15   1.92866666666667E+00   1.92866666666667E+00   0.00000000000000E+00   0.00000000000000E+00
      1.73142244095120E-15   3.68103310502688E-20   1.73145925128225E-15   3.54406526186984E-15   0.00000000000000E+00
      0.00000000000000E+00   0.00000000000000E+00   0.00000000000000E+00   0.00000000000000E+00   0.00000000000000E+00
      0.00000000000000E+00   4.98013029598604E-17
      6.67888888888889E-01
      0.00000000000000E+00   0.00000000000000E+00   0.00000000000000E+00   0.00000000000000E+00  -6.02254165467890E-20
     -1.73839368368136E-15  -1.73845390909791E-15  -5.28570665433846E-15   0.00000000000000E+00   0.00000000000000E+00
      0.00000000000000E+00   0.00000000000000E+00  -2.00509846358364E-19  -1.86636282255094E-25  -2.00510032994646E-19
      1.63582803925268E-15   2.00366666666667E+00   2.00366666666667E+00   0.00000000000000E+00   0.00000000000000E+00
      1.73861760600218E-15   3.68131287266292E-20   1.73865441913090E-15   3.60652660350958E-15   0.00000000000000E+00
      0.00000000000000E+00   0.00000000000000E+00   0.00000000000000E+00   0.00000000000000E+00   0.00000000000000E+00
      0.00000000000000E+00   4.33520115762015E-17
      6.92888888888889E-01
      0.00000000000000E+00   0.00000000000000E+00   0.00000000000000E+00   0.00000000000000E+00  -6.04259804393736E-20
     -1.74473266236814E-15  -1.74479308834858E-15  -5.34145165447353E-15   0.00000000000000E+00   0.00000000000000E+00
      0.00000000000000E+00   0.00000000000000E+00  -2.00735232475744E-19  -3.77897543182589E-25  -2.00735610373288E-19
      1.63582803925289E-15   2.07866666666667E+00   2.07866666666667E+00   0.00000000000000E+00   0.00000000000000E+00
      1.74495701657115E-15   3.68073878043460E-20   1.74499382395896E-15   3.66873083771956E-15   0.00000000000000E+00
      0.00000000000000E+00   0.00000000000000E+00   0.00000000000000E+00   0.00000000000000E+00   0.00000000000000E+00
      0.00000000000000E+00   3.68927775010869E-17
      7.17888888888889E-01
      0.00000000000000E+00   0.00000000000000E+00   0.00000000000000E+00   0.00000000000000E+00  -6.04583423422704E-20
     -1.75206160041253E-15  -1.75212205875487E-15  -5.39696383060702E-15   0.00000000000000E+00   0.00000000000000E+00
      0.00000000000000E+00   0.00000000000000E+00  -2.01065757823470E-19  -5.97165135013399E-26  -2.01065817539983E-19
      1.63582803925302E-15   2.15366666666667E+00   2.15366666666667E+00   0.00000000000000E+00   0.00000000000000E+00
      1.75228637316067E-15   3.67514117453044E-20   1.75232312457242E-15   3.73071219803745E-15   0.00000000000000E+00
      0.00000000000000E+00   0.00000000000000E+00   0.00000000000000E+00   0.00000000000000E+00   0.00000000000000E+00
      0.00000000000000E+00   3.04235933165479E-17
      7.42888888888889E-01
      0.00000000000000E+00   0.00000000000000E+00   0.00000000000000E+00   0.00000000000000E+00  -6.05097950185256E-20
     -1.76179896725398E-15  -1.76185947704900E-15  -5.45226396245059E-15   0.00000000000000E+00   0.00000000000000E+00
      0.00000000000000E+00   0.00000000000000E+00  -2.01362374354792E-19   1.25411812745076E-25  -2.01362248942979E-19
      1.63582803925306E-15   2.22866666666667E+00   2.22866666666667E+00   0.00000000000000E+00   0.00000000000000E+00
      1.76202406204457E-15   3.67772533701197E-20   1.76206083929794E-15   3.79249147082997E-15   0.00000000000000E+00
      0.00000000000000E+00   0.00000000000000E+00   0.00000000000000E+00   0.00000000000000E+00   0.00000000000000E+00
      0.00000000000000E+00   2.39444523675650E-17
      7.67888888888889E-01
      0.00000000000000E+00   0.00000000000000E+00   0.00000000000000E+00   0.00000000000000E+00  -6.05336474812020E-20
     -1.77423186866319E-15  -1.77429240231067E-15  -5.50736372373474E-15   0.00000000000000E+00   0.00000000000000E+00
      0.00000000000000E+00   0.00000000000000E+00  -2.01678440620072E-19   7.91260747463946E-26  -2.01678361493998E-19
      1.63582803925304E-15   2.30366666666667E+00   2.30366666666667E+00   0.00000000000000E+00   0.00000000000000E+00
      1.77445727700038E-15   3.68036717823807E-20   1.77449408067216E-15   3.85408032022060E-15   0.00000000000000E+00
      0.00000000000000E+00   0.00000000000000E+00   0.00000000000000E+00   0.00000000000000E+00   0.00000000000000E+00
      0.00000000000000E+00   1.74553642611037E-17
      7.92888888888889E-01
      0.00000000000000E+00   0.00000000000000E+00   0.00000000000000E+00   0.00000000000000E+00  -6.06288652388400E-20
     -1.78810019244269E-15  -1.78816082130793E-15  -5.56226845748239E-15   0.00000000000000E+00   0.00000000000000E+00
      0.00000000000000E+00   0.00000000000000E+00  -2.01917483302912E-19  -6.70768041956574E-25  -2.01918154070954E-19
      1.63582803925299E-15   2.37866666666667E+00   2.37866666666667E+00   0.00000000000000E+00   0.00000000000000E+00
      1.78832593205520E-15   3.68074068040167E-20   1.78836273946200E-15   3.91548405337600E-15   0.00000000000000E+00
      0.00000000000000E+00   0.00000000000000E+00   0.00000000000000E+00   0.00000000000000E+00   0.00000000000000E+00
      0.00000000000000E+00   1.09563648534013E-17
      8.17888888888889E-01
      0.00000000000000E+00   0.00000000000000E+00   0.00000000000000E+00   0.00000000000000E+00  -6.07924119842261E-20
     -1.80168963068384E-15  -1.80175042309583E-15  -5.61697951379101E-15   0.00000000000000E+00   0.00000000000000E+00
      0.00000000000000E+00   0.00000000000000E+00  -2.02084400117096E-19   2.16890614573352E-25  -2.02084183226481E-19
      1.63582803925295E-15   2.45366666666667E+00   2.45366666666667E+00   0.00000000000000E+00   0.00000000000000E+00
      1.80191566607051E-15   3.68412085455739E-20   1.80195250727905E-15   3.97670395167459E-15   0.00000000000000E+00
      0.00000000000000E+00   0.00000000000000E+00   0.00000000000000E+00   0.00000000000000E+00   0.00000000000000E+00
      0.00000000000000E+00   4.44752286345490E-18
      8.42888888888889E-01
      0.00000000000000E+00   0.00000000000000E+00   0.00000000000000E+00   0.00000000000000E+00  -6.07457062685900E-20
     -1.81525249678283E-15  -1.81531324248910E-15  -5.67149640189440E-15   0.00000000000000E+00   0.00000000000000E+00
      0.00000000000000E+00   0.00000000000000E+00  -2.02459498895317E-19  -4.77065620133037E-25  -2.02459975960938E-19
      1.63582803925295E-15   2.52866666666667E+00   2.52866666666667E+00   0.00000000000000E+00   0.00000000000000E+00
      1.81547884799520E-15   3.68544698564928E-20   1.81551570246506E-15   4.03773941765750E-15   0.00000000000000E+00
      0.00000000000000E+00   0.00000000000000E+00   0.00000000000000E+00   0.00000000000000E+00   0.00000000000000E+00
      0.00000000000000E+00  -2.07105501606338E-18
      8.67888888888889E-01
      0.00000000000000E+00   0.00000000000000E+00   0.00000000000000E+00   0.00000000000000E+00  -6.07429302723601E-20