DF-ISE text

Info {
  version   = 1.0
  type      = xyplot
  datasets  = [
    "time"
    "substrate OuterVoltage" "substrate InnerVoltage" "substrate QuasiFermiPotential" "substrate DisplacementCurrent" "substrate eCurrent"
    "substrate hCurrent" "substrate TotalCurrent" "substrate Charge" "source OuterVoltage" "source InnerVoltage"
    "source QuasiFermiPotential" "source DisplacementCurrent" "source eCurrent" "source hCurrent" "source TotalCurrent"
    "source Charge" "drain OuterVoltage" "drain InnerVoltage" "drain QuasiFermiPotential" "drain DisplacementCurrent"
    "drain eCurrent" "drain hCurrent" "drain TotalCurrent" "drain Charge" "gate OuterVoltage"
    "gate InnerVoltage" "gate QuasiFermiPotential" "gate DisplacementCurrent" "gate eCurrent" "gate hCurrent"
    "gate TotalCurrent" "gate Charge" ]
  functions = [
    Time
    OuterVoltage InnerVoltage QuasiFermiPotential DisplacementCurrent eCurrent
    hCurrent TotalCurrent Charge OuterVoltage InnerVoltage
    QuasiFermiPotential DisplacementCurrent eCurrent hCurrent TotalCurrent
    Charge OuterVoltage InnerVoltage QuasiFermiPotential DisplacementCurrent
    eCurrent hCurrent TotalCurrent Charge OuterVoltage
    InnerVoltage QuasiFermiPotential DisplacementCurrent eCurrent hCurrent
    TotalCurrent Charge ]
}

Data {
      0.00000000000000E+00
      0.00000000000000E+00   0.00000000000000E+00   0.00000000000000E+00   0.00000000000000E+00   1.59849337249112E-18
      6.24857316526522E-27   1.59849337873969E-18  -5.38049125636187E-15   0.00000000000000E+00   0.00000000000000E+00
      0.00000000000000E+00   0.00000000000000E+00  -9.32197606389113E-19  -6.03657755899640E-27  -9.32197612425691E-19
      1.41119176298325E-15   0.00000000000000E+00   0.00000000000000E+00   0.00000000000000E+00   0.00000000000000E+00
     -6.66295766102292E-19  -2.11706862777349E-28  -6.66295766313999E-19   1.41119176298325E-15   3.00000000000000E+00
      3.00000000000000E+00   0.00000000000000E+00   0.00000000000000E+00   0.00000000000000E+00   0.00000000000000E+00
      0.00000000000000E+00   2.55810773039538E-15
      1.00000000000000E-02
      0.00000000000000E+00   0.00000000000000E+00   0.00000000000000E+00   0.00000000000000E+00  -6.18141264176131E-18
     -3.34853540515579E-17  -3.96667666933192E-17  -5.40166166652573E-15   0.00000000000000E+00   0.00000000000000E+00
      0.00000000000000E+00   0.00000000000000E+00  -5.40340468255691E-06  -5.14256951639587E-25  -5.40340468255691E-06
      1.41112589610938E-15   3.00000000000000E-02   3.00000000000000E-02   0.00000000000000E+00   0.00000000000000E+00
      5.40340468259655E-06   2.47820091382032E-20   5.40340468259658E-06   1.44690418269347E-15   3.00000000000000E+00
      3.00000000000000E+00   0.00000000000000E+00   0.00000000000000E+00   0.00000000000000E+00   0.00000000000000E+00
      0.00000000000000E+00   2.54363158772288E-15
      2.33333333333333E-02
      0.00000000000000E+00   0.00000000000000E+00   0.00000000000000E+00   0.00000000000000E+00   8.11401002348061E-17
     -6.93891054573095E-17   1.17509947774966E-17  -5.42952981571840E-15   0.00000000000000E+00   0.00000000000000E+00
      0.00000000000000E+00   0.00000000000000E+00  -1.15141100580265E-05  -1.08219594373253E-24  -1.15141100580265E-05
      1.41104831095724E-15   7.00000000000000E-02   7.00000000000000E-02   0.00000000000000E+00   0.00000000000000E+00
      1.15141100580147E-05   3.31936235444552E-20   1.15141100580147E-05   1.49363625432817E-15   3.00000000000000E+00
      3.00000000000000E+00   0.00000000000000E+00   0.00000000000000E+00   0.00000000000000E+00   0.00000000000000E+00
      0.00000000000000E+00   2.52484525043298E-15
      4.24444444444445E-02
      0.00000000000000E+00   0.00000000000000E+00   0.00000000000000E+00   0.00000000000000E+00   2.09092016557105E-15
     -1.24630737212052E-16   1.96628942835899E-15  -5.46900494898606E-15   0.00000000000000E+00   0.00000000000000E+00
      0.00000000000000E+00   0.00000000000000E+00  -1.82740613431747E-05  -1.71970953469109E-24  -1.82740613431747E-05
      1.41095812351353E-15   1.27333333333333E-01   1.27333333333333E-01   0.00000000000000E+00   0.00000000000000E+00
      1.82740613412083E-05   3.40514172855417E-20   1.82740613412084E-05   1.55884712056383E-15   3.00000000000000E+00
      3.00000000000000E+00   0.00000000000000E+00   0.00000000000000E+00   0.00000000000000E+00   0.00000000000000E+00
      0.00000000000000E+00   2.49919970490870E-15
      6.74444444444444E-02
      0.00000000000000E+00   0.00000000000000E+00   0.00000000000000E+00   0.00000000000000E+00   9.64142090342409E-19
     -2.37397118683991E-16  -2.36432976593648E-16  -5.52060690990768E-15   0.00000000000000E+00   0.00000000000000E+00
      0.00000000000000E+00   0.00000000000000E+00  -2.41048610295701E-05  -2.26966192775672E-24  -2.41048610295701E-05
      1.41087623888576E-15   2.02333333333333E-01   2.02333333333333E-01   0.00000000000000E+00   0.00000000000000E+00
      2.41048610298065E-05  -1.34643536157956E-21   2.41048610298065E-05   1.64108583449635E-15   3.00000000000000E+00
      3.00000000000000E+00   0.00000000000000E+00   0.00000000000000E+00   0.00000000000000E+00   0.00000000000000E+00
      0.00000000000000E+00   2.46864483652556E-15
      9.24444444444444E-02
      0.00000000000000E+00   0.00000000000000E+00   0.00000000000000E+00   0.00000000000000E+00  -4.42615291164878E-18
     -3.73750563901416E-16  -3.78176716813064E-16  -5.57354118582205E-15   0.00000000000000E+00   0.00000000000000E+00
      0.00000000000000E+00   0.00000000000000E+00  -2.73190229541506E-05  -2.57477995974958E-24  -2.73190229541506E-05
      1.41082933235105E-15   2.77333333333333E-01   2.77333333333333E-01   0.00000000000000E+00   0.00000000000000E+00
      2.73190229545288E-05   3.41697216464793E-20   2.73190229545288E-05   1.72028699752999E-15   3.00000000000000E+00
      3.00000000000000E+00   0.00000000000000E+00   0.00000000000000E+00   0.00000000000000E+00   0.00000000000000E+00
      0.00000000000000E+00   2.44242485594101E-15
      1.17444444444444E-01
      0.00000000000000E+00   0.00000000000000E+00   0.00000000000000E+00   0.00000000000000E+00  -3.83728329082150E-18
     -4.62562443345272E-16  -4.66399726636094E-16  -5.62893453204609E-15   0.00000000000000E+00   0.00000000000000E+00
      0.00000000000000E+00   0.00000000000000E+00  -2.88513933046185E-05  -2.71660473943146E-24  -2.88513933046185E-05
      1.41080649977492E-15   3.52333333333333E-01   3.52333333333333E-01   0.00000000000000E+00   0.00000000000000E+00
      2.88513933050849E-05   3.69007185802701E-20   2.88513933050849E-05   1.79725522295377E-15   3.00000000000000E+00
      3.00000000000000E+00   0.00000000000000E+00   0.00000000000000E+00   0.00000000000000E+00   0.00000000000000E+00
      0.00000000000000E+00   2.42087280931738E-15
      1.42444444444444E-01
      0.00000000000000E+00   0.00000000000000E+00   0.00000000000000E+00   0.00000000000000E+00  -3.34791136943799E-17
     -5.09025037008027E-16  -5.42504150702407E-16  -5.68661100831984E-15   0.00000000000000E+00   0.00000000000000E+00
      0.00000000000000E+00   0.00000000000000E+00  -2.95717259900372E-05  -2.81925752521446E-24  -2.95717259900372E-05
      1.41079565852831E-15   4.27333333333333E-01   4.27333333333333E-01   0.00000000000000E+00   0.00000000000000E+00
      2.95717259905796E-05   4.84805243101621E-20   2.95717259905797E-05   1.87281176298777E-15   3.00000000000000E+00
      3.00000000000000E+00   0.00000000000000E+00   0.00000000000000E+00   0.00000000000000E+00   0.00000000000000E+00
      0.00000000000000E+00   2.40300358680376E-15
      1.67444444444444E-01
      0.00000000000000E+00   0.00000000000000E+00   0.00000000000000E+00   0.00000000000000E+00  -2.22941251917291E-16
     -5.43527819121029E-16  -7.66469071038320E-16  -5.74578422889785E-15   0.00000000000000E+00   0.00000000000000E+00
      0.00000000000000E+00   0.00000000000000E+00  -2.99835906833783E-05  -2.82537212152662E-24  -2.99835906833783E-05
      1.41078942824219E-15   5.02333333333333E-01   5.02333333333333E-01   0.00000000000000E+00   0.00000000000000E+00
      2.99835906841447E-05   3.36001115657276E-20   2.99835906841447E-05   1.94753083129230E-15   3.00000000000000E+00
      3.00000000000000E+00   0.00000000000000E+00   0.00000000000000E+00   0.00000000000000E+00   0.00000000000000E+00
      0.00000000000000E+00   2.38746396936335E-15
      1.92444444444444E-01
      0.00000000000000E+00   0.00000000000000E+00   0.00000000000000E+00   0.00000000000000E+00  -5.22828551874001E-16
     -5.74467725831045E-16  -1.09729627770505E-15  -5.80578060264286E-15   0.00000000000000E+00   0.00000000000000E+00
      0.00000000000000E+00   0.00000000000000E+00  -3.02731534231857E-05  -2.85214161920076E-24  -3.02731534231857E-05
      1.41078503414348E-15   5.77333333333333E-01   5.77333333333333E-01   0.00000000000000E+00   0.00000000000000E+00
      3.02731534242829E-05   3.28914897138780E-20   3.02731534242830E-05   2.02170660833525E-15   3.00000000000000E+00
      3.00000000000000E+00   0.00000000000000E+00   0.00000000000000E+00   0.00000000000000E+00   0.00000000000000E+00
      0.00000000000000E+00   2.37328896016412E-15
      2.17444444444444E-01
      0.00000000000000E+00   0.00000000000000E+00   0.00000000000000E+00   0.00000000000000E+00   3.87498759600813E-16
     -6.05659527255132E-16  -2.18160767654319E-16  -5.86635473857729E-15   0.00000000000000E+00   0.00000000000000E+00
      0.00000000000000E+00   0.00000000000000E+00  -3.04995734817163E-05  -2.87191923645477E-24  -3.04995734817163E-05
      1.41078159020389E-15   6.52333333333333E-01   6.52333333333333E-01   0.00000000000000E+00   0.00000000000000E+00
      3.04995734819345E-05   7.11605616305743E-21   3.04995734819345E-05   2.09549372660747E-15   3.00000000000000E+00
      3.00000000000000E+00   0.00000000000000E+00   0.00000000000000E+00   0.00000000000000E+00   0.00000000000000E+00
      0.00000000000000E+00   2.36007942176593E-15
      2.42444444444444E-01
      0.00000000000000E+00   0.00000000000000E+00   0.00000000000000E+00   0.00000000000000E+00   4.75829556920908E-18
     -6.38378049904999E-16  -6.33619754335790E-16  -5.92730239011698E-15   0.00000000000000E+00   0.00000000000000E+00
      0.00000000000000E+00   0.00000000000000E+00  -3.06881783452932E-05  -2.89212389088772E-24  -3.06881783452932E-05
      1.41077871604657E-15   7.27333333333333E-01   7.27333333333333E-01   0.00000000000000E+00   0.00000000000000E+00
      3.06881783459268E-05   3.68223466193105E-20   3.06881783459268E-05   2.16894247766664E-15   3.00000000000000E+00
      3.00000000000000E+00   0.00000000000000E+00   0.00000000000000E+00   0.00000000000000E+00   0.00000000000000E+00
      0.00000000000000E+00   2.34758119640376E-15
      2.67444444444444E-01
      0.00000000000000E+00   0.00000000000000E+00   0.00000000000000E+00   0.00000000000000E+00   5.56917092122876E-14
     -6.73392177845840E-16   5.50183170344417E-14  -5.98840578427823E-15   0.00000000000000E+00   0.00000000000000E+00
      0.00000000000000E+00   0.00000000000000E+00  -3.08533650526070E-05  -2.90870180408387E-24  -3.08533650526070E-05
      1.41077619471172E-15   8.02333333333333E-01   8.02333333333333E-01   0.00000000000000E+00   0.00000000000000E+00
      3.08533649975887E-05  -2.58765825600087E-20   3.08533649975887E-05   2.24204442228253E-15   3.00000000000000E+00
      3.00000000000000E+00   0.00000000000000E+00   0.00000000000000E+00   0.00000000000000E+00   0.00000000000000E+00
      0.00000000000000E+00   2.33558516728395E-15
      2.92444444444444E-01
      0.00000000000000E+00   0.00000000000000E+00   0.00000000000000E+00   0.00000000000000E+00  -5.91955619215585E-18
     -7.16226943387740E-16  -7.22146499579896E-16  -6.04951171808719E-15   0.00000000000000E+00   0.00000000000000E+00
      0.00000000000000E+00   0.00000000000000E+00  -3.10028054161388E-05  -2.92048010695091E-24  -3.10028054161388E-05
      1.41077391045536E-15   8.77333333333333E-01   8.77333333333334E-01   0.00000000000000E+00   0.00000000000000E+00
      3.10028054168609E-05   3.56336260105284E-20   3.10028054168609E-05   2.31477492515647E-15   3.00000000000000E+00
      3.00000000000000E+00   0.00000000000000E+00   0.00000000000000E+00   0.00000000000000E+00   0.00000000000000E+00
      0.00000000000000E+00   2.32396288247534E-15
      3.17444444444444E-01
      0.00000000000000E+00   0.00000000000000E+00   0.00000000000000E+00   0.00000000000000E+00  -1.35713631312985E-19
     -7.73071168718426E-16  -7.73206882349739E-16  -6.11057832135944E-15   0.00000000000000E+00   0.00000000000000E+00
      0.00000000000000E+00   0.00000000000000E+00  -3.11400206999041E-05  -2.93691466436043E-24  -3.11400206999041E-05
      1.41077181032368E-15   9.52333333333333E-01   9.52333333333333E-01   0.00000000000000E+00   0.00000000000000E+00
      3.11400207006773E-05   3.64476756542805E-20   3.11400207006773E-05   2.38712909172976E-15   3.00000000000000E+00
      3.00000000000000E+00   0.00000000000000E+00   0.00000000000000E+00   0.00000000000000E+00   0.00000000000000E+00
      0.00000000000000E+00   2.31267741930598E-15
      3.42444444444444E-01
      0.00000000000000E+00   0.00000000000000E+00   0.00000000000000E+00   0.00000000000000E+00  -2.67761635967781E-19
     -8.49850298611852E-16  -8.50118060247820E-16  -6.17166038425078E-15   0.00000000000000E+00   0.00000000000000E+00
      0.00000000000000E+00   0.00000000000000E+00  -3.12663248158494E-05  -2.94794834283980E-24  -3.12663248158494E-05
      1.41076987486649E-15   1.02733333333333E+00   1.02733333333333E+00   0.00000000000000E+00   0.00000000000000E+00
      3.12663248166995E-05   3.67669855969169E-20   3.12663248166995E-05   2.45912995478045E-15   3.00000000000000E+00
      3.00000000000000E+00   0.00000000000000E+00   0.00000000000000E+00   0.00000000000000E+00   0.00000000000000E+00
      0.00000000000000E+00   2.30176055460382E-15
      3.67444444444445E-01
      0.00000000000000E+00   0.00000000000000E+00   0.00000000000000E+00   0.00000000000000E+00  -3.95230268377977E-18
     -9.49419590008446E-16  -9.53371892692226E-16  -6.23287051097429E-15   0.00000000000000E+00   0.00000000000000E+00
      0.00000000000000E+00   0.00000000000000E+00  -3.13821395329716E-05  -2.95518878399298E-24  -3.13821395329716E-05
      1.41076809818309E-15   1.10233333333333E+00   1.10233333333333E+00   0.00000000000000E+00   0.00000000000000E+00
      3.13821395339249E-05   3.67635599926545E-20   3.13821395339249E-05   2.53082089553276E-15   3.00000000000000E+00
      3.00000000000000E+00   0.00000000000000E+00   0.00000000000000E+00   0.00000000000000E+00   0.00000000000000E+00
      0.00000000000000E+00   2.29128151725843E-15
      3.92444444444445E-01
      0.00000000000000E+00   0.00000000000000E+00   0.00000000000000E+00   0.00000000000000E+00  -1.14992312734469E-18
     -1.07385986271353E-15  -1.07500978584088E-15  -6.29428873698179E-15   0.00000000000000E+00   0.00000000000000E+00
      0.00000000000000E+00   0.00000000000000E+00  -3.14881090316975E-05  -2.96863398782544E-24  -3.14881090316975E-05
      1.41076647088329E-15   1.17733333333333E+00   1.17733333333333E+00   0.00000000000000E+00   0.00000000000000E+00
      3.14881090327725E-05   3.67639330024538E-20   3.14881090327725E-05   2.60223008837470E-15   3.00000000000000E+00
      3.00000000000000E+00   0.00000000000000E+00   0.00000000000000E+00   0.00000000000000E+00   0.00000000000000E+00
      0.00000000000000E+00   2.28129217772379E-15
      4.17444444444445E-01
      0.00000000000000E+00   0.00000000000000E+00   0.00000000000000E+00   0.00000000000000E+00  -4.43666126803943E-18
     -1.22296981558211E-15  -1.22740647685015E-15  -6.35590943101711E-15   0.00000000000000E+00   0.00000000000000E+00
      0.00000000000000E+00   0.00000000000000E+00  -3.15852679684528E-05  -2.97837238675939E-24  -3.15852679684528E-05
      1.41076497749334E-15   1.25233333333333E+00   1.25233333333333E+00   0.00000000000000E+00   0.00000000000000E+00
      3.15852679696802E-05   3.67674638447787E-20   3.15852679696802E-05   2.67333933000201E-15   3.00000000000000E+00
      3.00000000000000E+00   0.00000000000000E+00   0.00000000000000E+00   0.00000000000000E+00   0.00000000000000E+00
      0.00000000000000E+00   2.27180512352176E-15
      4.42444444444445E-01
      0.00000000000000E+00   0.00000000000000E+00   0.00000000000000E+00   0.00000000000000E+00  -5.40386259648108E-15
     -1.37636532282230E-15  -6.78022791930339E-15  -6.41757873703118E-15   0.00000000000000E+00   0.00000000000000E+00
      0.00000000000000E+00   0.00000000000000E+00  -3.16750384046154E-05  -2.97741794146526E-24  -3.16750384046154E-05
      1.41076359648677E-15   1.32733333333333E+00   1.32733333333333E+00   0.00000000000000E+00   0.00000000000000E+00
      3.16750384113956E-05   3.67732277872737E-20   3.16750384113957E-05   2.74403524083548E-15   3.00000000000000E+00
      3.00000000000000E+00   0.00000000000000E+00   0.00000000000000E+00   0.00000000000000E+00   0.00000000000000E+00
      0.00000000000000E+00   2.26277989970890E-15
      4.67444444444445E-01
      0.00000000000000E+00   0.00000000000000E+00   0.00000000000000E+00   0.00000000000000E+00   2.39000477875137E-15
     -1.49879188633603E-15   8.91212892415339E-16  -6.47897243912854E-15   0.00000000000000E+00   0.00000000000000E+00
      0.00000000000000E+00   0.00000000000000E+00  -3.17589440112431E-05  -2.99352992808073E-24  -3.17589440112431E-05
      1.41076230467493E-15   1.40233333333333E+00   1.40233333333333E+00   0.00000000000000E+00   0.00000000000000E+00
      3.17589440103518E-05   3.67805941390087E-20   3.17589440103518E-05   2.81407216631933E-15   3.00000000000000E+00
      3.00000000000000E+00   0.00000000000000E+00   0.00000000000000E+00   0.00000000000000E+00   0.00000000000000E+00
      0.00000000000000E+00   2.25413796813426E-15
      4.92444444444445E-01
      0.00000000000000E+00   0.00000000000000E+00   0.00000000000000E+00   0.00000000000000E+00   1.44102853272585E-16
     -1.57702396444662E-15  -1.43292111117403E-15  -6.53959611693367E-15   0.00000000000000E+00   0.00000000000000E+00
      0.00000000000000E+00   0.00000000000000E+00  -3.18386069297137E-05  -3.00168957142732E-24  -3.18386069297137E-05
      1.41076107726255E-15   1.47733333333333E+00   1.47733333333333E+00   0.00000000000000E+00   0.00000000000000E+00
      3.18386069311466E-05   3.67885845050661E-20   3.18386069311466E-05   2.88307363156635E-15   3.00000000000000E+00
      3.00000000000000E+00   0.00000000000000E+00   0.00000000000000E+00   0.00000000000000E+00   0.00000000000000E+00
      0.00000000000000E+00   2.24576140810477E-15
      5.17444444444445E-01
      0.00000000000000E+00   0.00000000000000E+00   0.00000000000000E+00   0.00000000000000E+00   1.80400818673192E-18
     -1.62360634629829E-15  -1.62180233811156E-15  -6.59904111150137E-15   0.00000000000000E+00   0.00000000000000E+00
      0.00000000000000E+00   0.00000000000000E+00  -3.19153504685838E-05  -3.00498097806562E-24  -3.19153504685838E-05
      1.41075989398099E-15   1.55233333333333E+00   1.55233333333333E+00   0.00000000000000E+00   0.00000000000000E+00
      3.19153504702055E-05   3.67967362194734E-20   3.19153504702055E-05   2.95073945978506E-15   3.00000000000000E+00
      3.00000000000000E+00   0.00000000000000E+00   0.00000000000000E+00   0.00000000000000E+00   0.00000000000000E+00
      0.00000000000000E+00   2.23754175773532E-15
      5.42444444444445E-01
      0.00000000000000E+00   0.00000000000000E+00   0.00000000000000E+00   0.00000000000000E+00  -2.34853164544945E-18
     -1.65414252187118E-15  -1.65649105351663E-15  -6.65722484981700E-15   0.00000000000000E+00   0.00000000000000E+00
      0.00000000000000E+00   0.00000000000000E+00  -3.19898266208638E-05  -3.01481401312476E-24  -3.19898266208638E-05
      1.41075874486100E-15   1.62733333333333E+00   1.62733333333333E+00   0.00000000000000E+00   0.00000000000000E+00
      3.19898266225202E-05   3.68047341352505E-20   3.19898266225203E-05   3.01703766171233E-15   3.00000000000000E+00
      3.00000000000000E+00   0.00000000000000E+00   0.00000000000000E+00   0.00000000000000E+00   0.00000000000000E+00
      0.00000000000000E+00   2.22942844324365E-15
      5.67444444444445E-01
      0.00000000000000E+00   0.00000000000000E+00   0.00000000000000E+00   0.00000000000000E+00  -1.11246011958483E-18
     -1.67689938511385E-15  -1.67801184523344E-15  -6.71432407204465E-15   0.00000000000000E+00   0.00000000000000E+00
      0.00000000000000E+00   0.00000000000000E+00  -3.20622362740667E-05  -3.01806791235289E-24  -3.20622362740667E-05
      1.41075762687065E-15   1.70233333333333E+00   1.70233333333333E+00   0.00000000000000E+00   0.00000000000000E+00
      3.20622362757446E-05   3.68124421361344E-20   3.20622362757447E-05   3.08215236804938E-15   3.00000000000000E+00
      3.00000000000000E+00   0.00000000000000E+00   0.00000000000000E+00   0.00000000000000E+00   0.00000000000000E+00
      0.00000000000000E+00   2.22141407712462E-15
      5.92444444444445E-01
      0.00000000000000E+00   0.00000000000000E+00   0.00000000000000E+00   0.00000000000000E+00  -4.63537256339134E-19
     -1.69391809287785E-15  -1.69438163013419E-15  -6.77059505465989E-15   0.00000000000000E+00   0.00000000000000E+00
      0.00000000000000E+00   0.00000000000000E+00  -3.21326008951990E-05  -3.02655093441989E-24  -3.21326008951990E-05
      1.41075653974090E-15   1.77733333333333E+00   1.77733333333333E+00   0.00000000000000E+00   0.00000000000000E+00
      3.21326008968933E-05   3.68198239046696E-20   3.21326008968934E-05   3.14632931880211E-15   3.00000000000000E+00
      3.00000000000000E+00   0.00000000000000E+00   0.00000000000000E+00   0.00000000000000E+00   0.00000000000000E+00
      0.00000000000000E+00   2.21350919611688E-15
      6.17444444444445E-01
      0.00000000000000E+00   0.00000000000000E+00   0.00000000000000E+00   0.00000000000000E+00  -2.12528419641428E-18
     -1.70596811929415E-15  -1.70809340349056E-15  -6.82625262800762E-15   0.00000000000000E+00   0.00000000000000E+00
      0.00000000000000E+00   0.00000000000000E+00  -3.22009114326404E-05  -3.03767521664271E-24  -3.22009114326404E-05
      1.41075548367220E-15   1.85233333333333E+00   1.85233333333333E+00   0.00000000000000E+00   0.00000000000000E+00
      3.22009114343485E-05   3.68268807786579E-20   3.22009114343485E-05   3.20977009952362E-15   3.00000000000000E+00
      3.00000000000000E+00   0.00000000000000E+00   0.00000000000000E+00   0.00000000000000E+00   0.00000000000000E+00
      0.00000000000000E+00   2.20572704481179E-15
      6.42444444444445E-01
      0.00000000000000E+00   0.00000000000000E+00   0.00000000000000E+00   0.00000000000000E+00   2.59232878921323E-18
     -1.71475591867308E-15  -1.71216358988387E-15  -6.88144253908059E-15   0.00000000000000E+00   0.00000000000000E+00
      0.00000000000000E+00   0.00000000000000E+00  -3.22672501311300E-05  -3.03617773170238E-24  -3.22672501311300E-05
      1.41075445745099E-15   1.92733333333333E+00   1.92733333333333E+00   0.00000000000000E+00   0.00000000000000E+00
      3.22672501328422E-05   3.68336255733337E-20   3.22672501328422E-05   3.27261873761561E-15   3.00000000000000E+00
      3.00000000000000E+00   0.00000000000000E+00   0.00000000000000E+00   0.00000000000000E+00   0.00000000000000E+00
      0.00000000000000E+00   2.19806934401398E-15
      6.67444444444445E-01
      0.00000000000000E+00   0.00000000000000E+00   0.00000000000000E+00   0.00000000000000E+00  -2.77649341502015E-18
     -1.72233355117036E-15  -1.72511004458538E-15  -6.93626525500866E-15   0.00000000000000E+00   0.00000000000000E+00
      0.00000000000000E+00   0.00000000000000E+00  -3.23318633534145E-05  -3.04539786045753E-24  -3.23318633534145E-05
      1.41075345731808E-15   2.00233333333333E+00   2.00233333333333E+00   0.00000000000000E+00   0.00000000000000E+00
      3.23318633551395E-05   3.68400735270742E-20   3.23318633551396E-05   3.33499528550530E-15   3.00000000000000E+00
      3.00000000000000E+00   0.00000000000000E+00   0.00000000000000E+00   0.00000000000000E+00   0.00000000000000E+00
      0.00000000000000E+00   2.19051651218527E-15
      6.92444444444445E-01
      0.00000000000000E+00   0.00000000000000E+00   0.00000000000000E+00   0.00000000000000E+00   3.80143533618360E-18
     -1.73060041437845E-15  -1.72679897904227E-15  -6.99079857175962E-15   0.00000000000000E+00   0.00000000000000E+00
      0.00000000000000E+00   0.00000000000000E+00  -3.23950940662086E-05  -3.04814186389607E-24  -3.23950940662086E-05
      1.41075247800680E-15   2.07733333333333E+00   2.07733333333333E+00   0.00000000000000E+00   0.00000000000000E+00
      3.23950940679353E-05   3.68462378932766E-20   3.23950940679354E-05   3.39701142605639E-15   3.00000000000000E+00
      3.00000000000000E+00   0.00000000000000E+00   0.00000000000000E+00   0.00000000000000E+00   0.00000000000000E+00
      0.00000000000000E+00   2.18303466769642E-15
      7.17444444444445E-01
      0.00000000000000E+00   0.00000000000000E+00   0.00000000000000E+00   0.00000000000000E+00  -1.35070455931076E-18
     -1.74081570964901E-15  -1.74216641420832E-15  -7.04510007707867E-15   0.00000000000000E+00   0.00000000000000E+00
      0.00000000000000E+00   0.00000000000000E+00  -3.24572457383746E-05  -3.05368310621196E-24  -3.24572457383746E-05
      1.41075151484996E-15   2.15233333333333E+00   2.15233333333333E+00   0.00000000000000E+00   0.00000000000000E+00
      3.24572457401167E-05   3.68521351195773E-20   3.24572457401168E-05   3.45875650146061E-15   3.00000000000000E+00
      3.00000000000000E+00   0.00000000000000E+00   0.00000000000000E+00   0.00000000000000E+00   0.00000000000000E+00
      0.00000000000000E+00   2.17559206076810E-15
      7.42444444444445E-01
      0.00000000000000E+00   0.00000000000000E+00   0.00000000000000E+00   0.00000000000000E+00   1.71344304723872E-18
     -1.75309934084111E-15  -1.75138589779387E-15  -7.09920434275750E-15   0.00000000000000E+00   0.00000000000000E+00
      0.00000000000000E+00   0.00000000000000E+00  -3.25185107451443E-05  -3.06005750804354E-24  -3.25185107451443E-05
      1.41075056489193E-15   2.22733333333333E+00   2.22733333333333E+00   0.00000000000000E+00   0.00000000000000E+00
      3.25185107468956E-05   3.68577872731898E-20   3.25185107468956E-05   3.52028513276655E-15   3.00000000000000E+00
      3.00000000000000E+00   0.00000000000000E+00   0.00000000000000E+00   0.00000000000000E+00   0.00000000000000E+00
      0.00000000000000E+00   2.16816864509899E-15
      7.67444444444445E-01
      0.00000000000000E+00   0.00000000000000E+00   0.00000000000000E+00   0.00000000000000E+00  -3.02738622193600E-18
     -1.76679672964610E-15  -1.76982411586803E-15  -7.15312766651084E-15   0.00000000000000E+00   0.00000000000000E+00
      0.00000000000000E+00   0.00000000000000E+00  -3.25789933534722E-05  -3.07535402492097E-24  -3.25789933534722E-05
      1.41074962653736E-15   2.30233333333333E+00   2.30233333333333E+00   0.00000000000000E+00   0.00000000000000E+00
      3.25789933552419E-05   3.68632181050068E-20   3.25789933552420E-05   3.58162386287715E-15   3.00000000000000E+00
      3.00000000000000E+00   0.00000000000000E+00   0.00000000000000E+00   0.00000000000000E+00   0.00000000000000E+00
      0.00000000000000E+00   2.16075417709632E-15
      7.92444444444445E-01
      0.00000000000000E+00   0.00000000000000E+00   0.00000000000000E+00   0.00000000000000E+00   1.11823624661835E-19
     -1.78099602634662E-15  -1.78088420272195E-15  -7.20687489087090E-15   0.00000000000000E+00   0.00000000000000E+00
      0.00000000000000E+00   0.00000000000000E+00  -3.26387498587685E-05  -3.07975664872310E-24  -3.26387498587685E-05
      1.41074869893186E-15   2.37733333333333E+00   2.37733333333333E+00   0.00000000000000E+00   0.00000000000000E+00
      3.26387498605493E-05   3.68684482117798E-20   3.26387498605493E-05   3.64278223979729E-15   3.00000000000000E+00
      3.00000000000000E+00   0.00000000000000E+00   0.00000000000000E+00   0.00000000000000E+00   0.00000000000000E+00
      0.00000000000000E+00   2.15334395214174E-15
      8.17444444444445E-01
      0.00000000000000E+00   0.00000000000000E+00   0.00000000000000E+00   0.00000000000000E+00   6.93385538581533E-18
     -1.79469105653176E-15  -1.78775720114594E-15  -7.26044495214002E-15   0.00000000000000E+00   0.00000000000000E+00
      0.00000000000000E+00   0.00000000000000E+00  -3.26978150160663E-05  -3.08182347020862E-24  -3.26978150160663E-05
      1.41074778155346E-15   2.45233333333333E+00   2.45233333333333E+00   0.00000000000000E+00   0.00000000000000E+00
      3.26978150178541E-05   3.68734382618083E-20   3.26978150178541E-05   3.70376125136029E-15   3.00000000000000E+00
      3.00000000000000E+00   0.00000000000000E+00   0.00000000000000E+00   0.00000000000000E+00   0.00000000000000E+00
      0.00000000000000E+00   2.14593591922625E-15
      8.42444444444445E-01
      0.00000000000000E+00   0.00000000000000E+00   0.00000000000000E+00   0.00000000000000E+00  -1.44936750552329E-18
     -1.80831683980228E-15  -1.80976620730781E-15  -7.31383482290588E-15   0.00000000000000E+00   0.00000000000000E+00
      0.00000000000000E+00   0.00000000000000E+00  -3.27562153890109E-05  -3.08580237765408E-24  -3.27562153890109E-05
      1.41074687400659E-15   2.52733333333333E+00   2.52733333333333E+00   0.00000000000000E+00   0.00000000000000E+00
      3.27562153908207E-05   3.68783393564847E-20   3.27562153908207E-05   3.76455876240666E-15   3.00000000000000E+00
      3.00000000000000E+00   0.00000000000000E+00   0.00000000000000E+00   0.00000000000000E+00   0.00000000000000E+00
      0.00000000000000E+00   2.13852918649261E-15
      8.67444444444445E-01
      0.00000000000000E+00   0.00000000000000E+00   0.00000000000000E+00   0.00000000000000E+00  -4.18941012016192E-19