DF-ISE text

Info {
  version   = 1.0
  type      = xyplot
  datasets  = [
    "time"
    "substrate OuterVoltage" "substrate InnerVoltage" "substrate QuasiFermiPotential" "substrate DisplacementCurrent" "substrate eCurrent"
    "substrate hCurrent" "substrate TotalCurrent" "substrate Charge" "source OuterVoltage" "source InnerVoltage"
    "source QuasiFermiPotential" "source DisplacementCurrent" "source eCurrent" "source hCurrent" "source TotalCurrent"
    "source Charge" "drain OuterVoltage" "drain InnerVoltage" "drain QuasiFermiPotential" "drain DisplacementCurrent"
    "drain eCurrent" "drain hCurrent" "drain TotalCurrent" "drain Charge" "gate OuterVoltage"
    "gate InnerVoltage" "gate QuasiFermiPotential" "gate DisplacementCurrent" "gate eCurrent" "gate hCurrent"
    "gate TotalCurrent" "gate Charge" ]
  functions = [
    Time
    OuterVoltage InnerVoltage QuasiFermiPotential DisplacementCurrent eCurrent
    hCurrent TotalCurrent Charge OuterVoltage InnerVoltage
    QuasiFermiPotential DisplacementCurrent eCurrent hCurrent TotalCurrent
    Charge OuterVoltage InnerVoltage QuasiFermiPotential DisplacementCurrent
    eCurrent hCurrent TotalCurrent Charge OuterVoltage
    InnerVoltage QuasiFermiPotential DisplacementCurrent eCurrent hCurrent
    TotalCurrent Charge ]
}

Data {
      0.00000000000000E+00
      0.00000000000000E+00   0.00000000000000E+00   0.00000000000000E+00   0.00000000000000E+00  -1.56845956230568E-18
     -9.84310817862992E-29  -1.56845956240411E-18  -5.39078410236705E-15   0.00000000000000E+00   0.00000000000000E+00
      0.00000000000000E+00   0.00000000000000E+00   6.15092475953604E-19   4.27159544057082E-29   6.15092475996320E-19
      1.41629350673825E-15   0.00000000000000E+00   0.00000000000000E+00   0.00000000000000E+00   0.00000000000000E+00
      9.53367086352107E-19   5.56838949605748E-29   9.53367086407791E-19   1.41629350673825E-15   3.00000000000000E+00
      3.00000000000000E+00   0.00000000000000E+00   0.00000000000000E+00   0.00000000000000E+00   0.00000000000000E+00
      0.00000000000000E+00   2.55819708889056E-15
      1.00000000000000E-02
      0.00000000000000E+00   0.00000000000000E+00   0.00000000000000E+00   0.00000000000000E+00  -7.31329103301263E-18
     -3.37587751015947E-17  -4.10720661346073E-17  -5.41200036325148E-15   0.00000000000000E+00   0.00000000000000E+00
      0.00000000000000E+00   0.00000000000000E+00  -5.37785462438988E-06  -5.08273530015866E-25  -5.37785462438988E-06
      1.41622791807809E-15   3.00000000000000E-02   3.00000000000000E-02   0.00000000000000E+00   0.00000000000000E+00
      5.37785462443092E-06   2.47996505537522E-20   5.37785462443095E-06   1.45204725156348E-15   3.00000000000000E+00
      3.00000000000000E+00   0.00000000000000E+00   0.00000000000000E+00   0.00000000000000E+00   0.00000000000000E+00
      0.00000000000000E+00   2.54372519360992E-15
      2.33333333333333E-02
      0.00000000000000E+00   0.00000000000000E+00   0.00000000000000E+00   0.00000000000000E+00   8.90264106710122E-17
     -7.01217087441179E-17   1.89047019268944E-17  -5.43992248567349E-15   0.00000000000000E+00   0.00000000000000E+00
      0.00000000000000E+00   0.00000000000000E+00  -1.14562706177646E-05  -1.07980604724302E-24  -1.14562706177646E-05
      1.41615071447345E-15   7.00000000000000E-02   7.00000000000000E-02   0.00000000000000E+00   0.00000000000000E+00
      1.14562706177456E-05   3.31900128766244E-20   1.14562706177457E-05   1.49882455754234E-15   3.00000000000000E+00
      3.00000000000000E+00   0.00000000000000E+00   0.00000000000000E+00   0.00000000000000E+00   0.00000000000000E+00
      0.00000000000000E+00   2.52494721365771E-15
      4.24444444444445E-02
      0.00000000000000E+00   0.00000000000000E+00   0.00000000000000E+00   0.00000000000000E+00   2.08019703325040E-15
     -1.26322978489334E-16   1.95387405476107E-15  -5.47946867342457E-15   0.00000000000000E+00   0.00000000000000E+00
      0.00000000000000E+00   0.00000000000000E+00  -1.81738890034533E-05  -1.71304771564168E-24  -1.81738890034533E-05
      1.41606107725837E-15   1.27333333333333E-01   1.27333333333333E-01   0.00000000000000E+00   0.00000000000000E+00
      1.81738890014993E-05   3.40559193840749E-20   1.81738890014994E-05   1.56408673965437E-15   3.00000000000000E+00
      3.00000000000000E+00   0.00000000000000E+00   0.00000000000000E+00   0.00000000000000E+00   0.00000000000000E+00
      0.00000000000000E+00   2.49932085651183E-15
      6.74444444444444E-02
      0.00000000000000E+00   0.00000000000000E+00   0.00000000000000E+00   0.00000000000000E+00  -2.54820563934697E-19
     -2.40362440892904E-16  -2.40617261456839E-16  -5.53116677655633E-15   0.00000000000000E+00   0.00000000000000E+00
      0.00000000000000E+00   0.00000000000000E+00  -2.39571082782298E-05  -2.25855903167952E-24  -2.39571082782298E-05
      1.41597987048404E-15   2.02333333333333E-01   2.02333333333333E-01   0.00000000000000E+00   0.00000000000000E+00
      2.39571082784704E-05  -4.69226590274630E-21   2.39571082784704E-05   1.64637826906180E-15   3.00000000000000E+00
      3.00000000000000E+00   0.00000000000000E+00   0.00000000000000E+00   0.00000000000000E+00   0.00000000000000E+00
      0.00000000000000E+00   2.46880863701050E-15
      9.24444444444444E-02
      0.00000000000000E+00   0.00000000000000E+00   0.00000000000000E+00   0.00000000000000E+00  -9.08962811204159E-19
     -3.76376570780518E-16  -3.77285533591723E-16  -5.58420921696453E-15   0.00000000000000E+00   0.00000000000000E+00
      0.00000000000000E+00   0.00000000000000E+00  -2.71343486987202E-05  -2.55793961494508E-24  -2.71343486987202E-05
      1.41593352202664E-15   2.77333333333333E-01   2.77333333333333E-01   0.00000000000000E+00   0.00000000000000E+00
      2.71343486990975E-05   3.40274276565899E-20   2.71343486990975E-05   1.72562238746191E-15   3.00000000000000E+00
      3.00000000000000E+00   0.00000000000000E+00   0.00000000000000E+00   0.00000000000000E+00   0.00000000000000E+00
      0.00000000000000E+00   2.44265330747597E-15
      1.17444444444444E-01
      0.00000000000000E+00   0.00000000000000E+00   0.00000000000000E+00   0.00000000000000E+00  -5.04528639716690E-19
     -4.64074064525173E-16  -4.64578593164890E-16  -5.63971110949217E-15   0.00000000000000E+00   0.00000000000000E+00
      0.00000000000000E+00   0.00000000000000E+00  -2.86431933290072E-05  -2.70018776887438E-24  -2.86431933290072E-05
      1.41591105454877E-15   3.52333333333333E-01   3.52333333333333E-01   0.00000000000000E+00   0.00000000000000E+00
      2.86431933294717E-05   3.69012494339954E-20   2.86431933294718E-05   1.80262684606555E-15   3.00000000000000E+00
      3.00000000000000E+00   0.00000000000000E+00   0.00000000000000E+00   0.00000000000000E+00   0.00000000000000E+00
      0.00000000000000E+00   2.42117320887785E-15
      1.42444444444444E-01
      0.00000000000000E+00   0.00000000000000E+00   0.00000000000000E+00   0.00000000000000E+00  -3.63315224832569E-17
     -5.10037579092409E-16  -5.46369101575665E-16  -5.69747650158334E-15   0.00000000000000E+00   0.00000000000000E+00
      0.00000000000000E+00   0.00000000000000E+00  -2.93519984108684E-05  -2.77670460012043E-24  -2.93519984108684E-05
      1.41590039521381E-15   4.27333333333333E-01   4.27333333333333E-01   0.00000000000000E+00   0.00000000000000E+00
      2.93519984114147E-05   4.70652126451177E-20   2.93519984114148E-05   1.87821568446776E-15   3.00000000000000E+00
      3.00000000000000E+00   0.00000000000000E+00   0.00000000000000E+00   0.00000000000000E+00   0.00000000000000E+00
      0.00000000000000E+00   2.40336042190177E-15
      1.67444444444444E-01
      0.00000000000000E+00   0.00000000000000E+00   0.00000000000000E+00   0.00000000000000E+00  -2.23196023711612E-16
     -5.44410433288021E-16  -7.67606456999634E-16  -5.75671762896598E-15   0.00000000000000E+00   0.00000000000000E+00
      0.00000000000000E+00   0.00000000000000E+00  -2.97583744378226E-05  -2.80564647220356E-24  -2.97583744378226E-05
      1.41589425323139E-15   5.02333333333333E-01   5.02333333333333E-01   0.00000000000000E+00   0.00000000000000E+00
      2.97583744385902E-05   3.35763163532577E-20   2.97583744385902E-05   1.95296499326662E-15   3.00000000000000E+00
      3.00000000000000E+00   0.00000000000000E+00   0.00000000000000E+00   0.00000000000000E+00   0.00000000000000E+00
      0.00000000000000E+00   2.38785838246797E-15
      1.92444444444444E-01
      0.00000000000000E+00   0.00000000000000E+00   0.00000000000000E+00   0.00000000000000E+00  -5.39838516118573E-16
     -5.75157184209712E-16  -1.11499570032828E-15  -5.81676916812780E-15   0.00000000000000E+00   0.00000000000000E+00
      0.00000000000000E+00   0.00000000000000E+00  -3.00447476735959E-05  -2.83234710199032E-24  -3.00447476735959E-05
      1.41588991141475E-15   5.77333333333333E-01   5.77333333333333E-01   0.00000000000000E+00   0.00000000000000E+00
      3.00447476747109E-05   3.21832449237159E-20   3.00447476747109E-05   2.02717030437131E-15   3.00000000000000E+00
      3.00000000000000E+00   0.00000000000000E+00   0.00000000000000E+00   0.00000000000000E+00   0.00000000000000E+00
      0.00000000000000E+00   2.37370895234172E-15
      2.17444444444444E-01
      0.00000000000000E+00   0.00000000000000E+00   0.00000000000000E+00   0.00000000000000E+00   4.17691457048267E-16
     -6.05941918053212E-16  -1.88250461004945E-16  -5.87739423595791E-15   0.00000000000000E+00   0.00000000000000E+00
      0.00000000000000E+00   0.00000000000000E+00  -3.02689025786220E-05  -2.85333292890279E-24  -3.02689025786220E-05
      1.41588650504776E-15   6.52333333333333E-01   6.52333333333333E-01   0.00000000000000E+00   0.00000000000000E+00
      3.02689025788102E-05  -9.37903190162823E-21   3.02689025788102E-05   2.10098754631142E-15   3.00000000000000E+00
      3.00000000000000E+00   0.00000000000000E+00   0.00000000000000E+00   0.00000000000000E+00   0.00000000000000E+00
      0.00000000000000E+00   2.36052018459874E-15
      2.42444444444444E-01
      0.00000000000000E+00   0.00000000000000E+00   0.00000000000000E+00   0.00000000000000E+00   3.45185263999145E-18
     -6.38127660854905E-16  -6.34675808214914E-16  -5.93838851383776E-15   0.00000000000000E+00   0.00000000000000E+00
      0.00000000000000E+00   0.00000000000000E+00  -3.04557980756443E-05  -2.87104238071610E-24  -3.04557980756443E-05
      1.41588365958890E-15   7.27333333333333E-01   7.27333333333333E-01   0.00000000000000E+00   0.00000000000000E+00
      3.04557980762790E-05   3.68251907713055E-20   3.04557980762790E-05   2.17446707434479E-15   3.00000000000000E+00
      3.00000000000000E+00   0.00000000000000E+00   0.00000000000000E+00   0.00000000000000E+00   0.00000000000000E+00
      0.00000000000000E+00   2.34803777990406E-15
      2.67444444444444E-01
      0.00000000000000E+00   0.00000000000000E+00   0.00000000000000E+00   0.00000000000000E+00   5.55145252352898E-14
     -6.72195090122978E-16   5.48423301451668E-14  -5.99953633275342E-15   0.00000000000000E+00   0.00000000000000E+00
      0.00000000000000E+00   0.00000000000000E+00  -3.06195971544762E-05  -2.88645220827738E-24  -3.06195971544762E-05
      1.41588116178967E-15   8.02333333333333E-01   8.02333333333333E-01   0.00000000000000E+00   0.00000000000000E+00
      3.06195970996339E-05  -2.95337020791641E-21   3.06195970996339E-05   2.24760093915511E-15   3.00000000000000E+00
      3.00000000000000E+00   0.00000000000000E+00   0.00000000000000E+00   0.00000000000000E+00   0.00000000000000E+00
      0.00000000000000E+00   2.33605423180863E-15
      2.92444444444444E-01
      0.00000000000000E+00   0.00000000000000E+00   0.00000000000000E+00   0.00000000000000E+00   2.90566059173902E-18
     -7.13540411021966E-16  -7.10634750430227E-16  -6.06068691935078E-15   0.00000000000000E+00   0.00000000000000E+00
      0.00000000000000E+00   0.00000000000000E+00  -3.07678401721133E-05  -2.90048162363749E-24  -3.07678401721133E-05
      1.41587889799239E-15   8.77333333333333E-01   8.77333333333333E-01   0.00000000000000E+00   0.00000000000000E+00
      3.07678401728238E-05   3.55657510457742E-20   3.07678401728239E-05   2.32036530231200E-15   3.00000000000000E+00
      3.00000000000000E+00   0.00000000000000E+00   0.00000000000000E+00   0.00000000000000E+00   0.00000000000000E+00
      0.00000000000000E+00   2.32444271904639E-15
      3.17444444444444E-01
      0.00000000000000E+00   0.00000000000000E+00   0.00000000000000E+00   0.00000000000000E+00   1.20358134263415E-18
     -7.68647557700901E-16  -7.67443976358267E-16  -6.12180084071576E-15   0.00000000000000E+00   0.00000000000000E+00
      0.00000000000000E+00   0.00000000000000E+00  -3.09039765894847E-05  -2.91328840771961E-24  -3.09039765894847E-05
      1.41587681637474E-15   9.52333333333333E-01   9.52333333333333E-01   0.00000000000000E+00   0.00000000000000E+00
      3.09039765902521E-05   6.79295334553492E-20   3.09039765902522E-05   2.39275629404507E-15   3.00000000000000E+00
      3.00000000000000E+00   0.00000000000000E+00   0.00000000000000E+00   0.00000000000000E+00   0.00000000000000E+00
      0.00000000000000E+00   2.31316773029594E-15
      3.42444444444444E-01
      0.00000000000000E+00   0.00000000000000E+00   0.00000000000000E+00   0.00000000000000E+00  -2.50499979857656E-18
     -8.43755446726642E-16  -8.46260446525219E-16  -6.18293525614603E-15   0.00000000000000E+00   0.00000000000000E+00
      0.00000000000000E+00   0.00000000000000E+00  -3.10292886776504E-05  -2.92517500318820E-24  -3.10292886776504E-05
      1.41587489797890E-15   1.02733333333333E+00   1.02733333333333E+00   0.00000000000000E+00   0.00000000000000E+00
      3.10292886784966E-05   3.68429646952619E-20   3.10292886784966E-05   2.46479844366376E-15   3.00000000000000E+00
      3.00000000000000E+00   0.00000000000000E+00   0.00000000000000E+00   0.00000000000000E+00   0.00000000000000E+00
      0.00000000000000E+00   2.30226191450336E-15
      3.67444444444445E-01
      0.00000000000000E+00   0.00000000000000E+00   0.00000000000000E+00   0.00000000000000E+00  -2.00392385971303E-18
     -9.42429250926171E-16  -9.44433174785884E-16  -6.24420487973056E-15   0.00000000000000E+00   0.00000000000000E+00
      0.00000000000000E+00   0.00000000000000E+00  -3.11441920653245E-05  -2.93593496320964E-24  -3.11441920653245E-05
      1.41587313699585E-15   1.10233333333333E+00   1.10233333333333E+00   0.00000000000000E+00   0.00000000000000E+00
      3.11441920662689E-05   3.67646453382319E-20   3.11441920662690E-05   2.53653719769234E-15   3.00000000000000E+00
      3.00000000000000E+00   0.00000000000000E+00   0.00000000000000E+00   0.00000000000000E+00   0.00000000000000E+00
      0.00000000000000E+00   2.29179454504237E-15
      3.92444444444445E-01
      0.00000000000000E+00   0.00000000000000E+00   0.00000000000000E+00   0.00000000000000E+00  -1.26184639062382E-18
     -1.06701406602897E-15  -1.06827591241960E-15  -6.30569189245141E-15   0.00000000000000E+00   0.00000000000000E+00
      0.00000000000000E+00   0.00000000000000E+00  -3.12493319273488E-05  -2.94591147769825E-24  -3.12493319273488E-05
      1.41587152402221E-15   1.17733333333333E+00   1.17733333333333E+00   0.00000000000000E+00   0.00000000000000E+00
      3.12493319284170E-05   3.67644437478035E-20   3.12493319284170E-05   2.60800339845507E-15   3.00000000000000E+00
      3.00000000000000E+00   0.00000000000000E+00   0.00000000000000E+00   0.00000000000000E+00   0.00000000000000E+00
      0.00000000000000E+00   2.28181696997412E-15
      4.17444444444445E-01
      0.00000000000000E+00   0.00000000000000E+00   0.00000000000000E+00   0.00000000000000E+00   1.41436140181266E-18
     -1.21729025880338E-15  -1.21587589740157E-15  -6.36739261972004E-15   0.00000000000000E+00   0.00000000000000E+00
      0.00000000000000E+00   0.00000000000000E+00  -3.13457415735528E-05  -2.95492402298708E-24  -3.13457415735528E-05
      1.41587004361386E-15   1.25233333333333E+00   1.25233333333333E+00   0.00000000000000E+00   0.00000000000000E+00
      3.13457415747686E-05   3.67674939893111E-20   3.13457415747687E-05   2.67918155462518E-15   3.00000000000000E+00
      3.00000000000000E+00   0.00000000000000E+00   0.00000000000000E+00   0.00000000000000E+00   0.00000000000000E+00
      0.00000000000000E+00   2.27234102148099E-15
      4.42444444444445E-01
      0.00000000000000E+00   0.00000000000000E+00   0.00000000000000E+00   0.00000000000000E+00  -5.32792493392271E-15
     -1.37295338715776E-15  -6.70087832108047E-15  -6.42915433524090E-15   0.00000000000000E+00   0.00000000000000E+00
      0.00000000000000E+00   0.00000000000000E+00  -3.14348365437081E-05  -2.96334765161931E-24  -3.14348365437081E-05
      1.41586867436050E-15   1.32733333333333E+00   1.32733333333333E+00   0.00000000000000E+00   0.00000000000000E+00
      3.14348365504089E-05   3.67729032924602E-20   3.14348365504090E-05   2.74996005508902E-15   3.00000000000000E+00
      3.00000000000000E+00   0.00000000000000E+00   0.00000000000000E+00   0.00000000000000E+00   0.00000000000000E+00
      0.00000000000000E+00   2.26332560579138E-15
      4.67444444444445E-01
      0.00000000000000E+00   0.00000000000000E+00   0.00000000000000E+00   0.00000000000000E+00   2.41454058874157E-15
     -1.49850964034979E-15   9.16030948391771E-16  -6.49065125697052E-15   0.00000000000000E+00   0.00000000000000E+00
      0.00000000000000E+00   0.00000000000000E+00  -3.15181300290820E-05  -2.97119170944726E-24  -3.15181300290820E-05
      1.41586739325344E-15   1.40233333333333E+00   1.40233333333333E+00   0.00000000000000E+00   0.00000000000000E+00
      3.15181300281659E-05   3.67800348950552E-20   3.15181300281659E-05   2.82009209268302E-15   3.00000000000000E+00
      3.00000000000000E+00   0.00000000000000E+00   0.00000000000000E+00   0.00000000000000E+00   0.00000000000000E+00
      0.00000000000000E+00   2.25469177103403E-15
      4.92444444444445E-01
      0.00000000000000E+00   0.00000000000000E+00   0.00000000000000E+00   0.00000000000000E+00   1.45990525738350E-16
     -1.57982891118772E-15  -1.43383838544937E-15  -6.55138307151167E-15   0.00000000000000E+00   0.00000000000000E+00
      0.00000000000000E+00   0.00000000000000E+00  -3.15972331134099E-05  -2.97866903426212E-24  -3.15972331134099E-05
      1.41586617568914E-15   1.47733333333333E+00   1.47733333333333E+00   0.00000000000000E+00   0.00000000000000E+00
      3.15972331148437E-05   3.67879008228137E-20   3.15972331148437E-05   2.88919558993220E-15   3.00000000000000E+00
      3.00000000000000E+00   0.00000000000000E+00   0.00000000000000E+00   0.00000000000000E+00   0.00000000000000E+00
      0.00000000000000E+00   2.24632130589032E-15
      5.17444444444445E-01
      0.00000000000000E+00   0.00000000000000E+00   0.00000000000000E+00   0.00000000000000E+00   3.52369782176605E-19
     -1.62884077626268E-15  -1.62848840648051E-15  -6.61093273680083E-15   0.00000000000000E+00   0.00000000000000E+00
      0.00000000000000E+00   0.00000000000000E+00  -3.16734525199055E-05  -2.98581803890534E-24  -3.16734525199055E-05
      1.41586500167240E-15   1.55233333333333E+00   1.55233333333333E+00   0.00000000000000E+00   0.00000000000000E+00
      3.16734525215339E-05   3.67960075322830E-20   3.16734525215339E-05   2.95696136352619E-15   3.00000000000000E+00
      3.00000000000000E+00   0.00000000000000E+00   0.00000000000000E+00   0.00000000000000E+00   0.00000000000000E+00
      0.00000000000000E+00   2.23810637160223E-15
      5.42444444444445E-01
      0.00000000000000E+00   0.00000000000000E+00   0.00000000000000E+00   0.00000000000000E+00  -9.94426470419120E-19
     -1.66110910376827E-15  -1.66210353023868E-15  -6.66920813677974E-15   0.00000000000000E+00   0.00000000000000E+00
      0.00000000000000E+00   0.00000000000000E+00  -3.17474278282606E-05  -2.99283764043716E-24  -3.17474278282606E-05
      1.41586386143383E-15   1.62733333333333E+00   1.62733333333333E+00   0.00000000000000E+00   0.00000000000000E+00
      3.17474278299226E-05   3.68040102035113E-20   3.17474278299227E-05   3.02334712782424E-15   3.00000000000000E+00
      3.00000000000000E+00   0.00000000000000E+00   0.00000000000000E+00   0.00000000000000E+00   0.00000000000000E+00
      0.00000000000000E+00   2.22999714752166E-15
      5.67444444444445E-01
      0.00000000000000E+00   0.00000000000000E+00   0.00000000000000E+00   0.00000000000000E+00  -3.84310658826135E-18
     -1.68511911579716E-15  -1.68896222238542E-15  -6.72638054314469E-15   0.00000000000000E+00   0.00000000000000E+00
      0.00000000000000E+00   0.00000000000000E+00  -3.18193546454883E-05  -2.99951922269378E-24  -3.18193546454883E-05
      1.41586275202491E-15   1.70233333333333E+00   1.70233333333333E+00   0.00000000000000E+00   0.00000000000000E+00
      3.18193546471772E-05   3.68117499516312E-20   3.18193546471773E-05   3.08853117310784E-15   3.00000000000000E+00
      3.00000000000000E+00   0.00000000000000E+00   0.00000000000000E+00   0.00000000000000E+00   0.00000000000000E+00
      0.00000000000000E+00   2.22198661801194E-15
      5.92444444444445E-01
      0.00000000000000E+00   0.00000000000000E+00   0.00000000000000E+00   0.00000000000000E+00  -2.50710937202840E-19
     -1.70306553194258E-15  -1.70331624287978E-15  -6.78270756565456E-15   0.00000000000000E+00   0.00000000000000E+00
      0.00000000000000E+00   0.00000000000000E+00  -3.18892528724604E-05  -3.00625986636513E-24  -3.18892528724604E-05
      1.41586167320021E-15   1.77733333333333E+00   1.77733333333333E+00   0.00000000000000E+00   0.00000000000000E+00
      3.18892528741636E-05   3.68191764729935E-20   3.18892528741636E-05   3.15276044395508E-15   3.00000000000000E+00
      3.00000000000000E+00   0.00000000000000E+00   0.00000000000000E+00   0.00000000000000E+00   0.00000000000000E+00
      0.00000000000000E+00   2.21408544849927E-15
      6.17444444444445E-01
      0.00000000000000E+00   0.00000000000000E+00   0.00000000000000E+00   0.00000000000000E+00   2.07042684140010E-18
     -1.71572819752841E-15  -1.71365777068701E-15  -6.83840891192030E-15   0.00000000000000E+00   0.00000000000000E+00
      0.00000000000000E+00   0.00000000000000E+00  -3.19571135490665E-05  -3.01264038344716E-24  -3.19571135490665E-05
      1.41586062515775E-15   1.85233333333333E+00   1.85233333333333E+00   0.00000000000000E+00   0.00000000000000E+00
      3.19571135507801E-05   3.68262834510690E-20   3.19571135507801E-05   3.21624141975019E-15   3.00000000000000E+00
      3.00000000000000E+00   0.00000000000000E+00   0.00000000000000E+00   0.00000000000000E+00   0.00000000000000E+00
      0.00000000000000E+00   2.20630686701235E-15
      6.42444444444445E-01
      0.00000000000000E+00   0.00000000000000E+00   0.00000000000000E+00   0.00000000000000E+00   1.18906715841388E-18
     -1.72484828591128E-15  -1.72365921875286E-15  -6.89363494682568E-15   0.00000000000000E+00   0.00000000000000E+00
      0.00000000000000E+00   0.00000000000000E+00  -3.20230192183427E-05  -3.01875530748872E-24  -3.20230192183427E-05
      1.41585960667980E-15   1.92733333333333E+00   1.92733333333333E+00   0.00000000000000E+00   0.00000000000000E+00
      3.20230192200662E-05   3.68330795235704E-20   3.20230192200663E-05   3.27912284050323E-15   3.00000000000000E+00
      3.00000000000000E+00   0.00000000000000E+00   0.00000000000000E+00   0.00000000000000E+00   0.00000000000000E+00
      0.00000000000000E+00   2.19865249964265E-15
      6.67444444444445E-01
      0.00000000000000E+00   0.00000000000000E+00   0.00000000000000E+00   0.00000000000000E+00  -8.42221597912104E-19
     -1.73254631949737E-15  -1.73338854109528E-15  -6.94848922436344E-15   0.00000000000000E+00   0.00000000000000E+00
      0.00000000000000E+00   0.00000000000000E+00  -3.20872155301274E-05  -3.02480634243760E-24  -3.20872155301274E-05
      1.41585861402118E-15   2.00233333333333E+00   2.00233333333333E+00   0.00000000000000E+00   0.00000000000000E+00
      3.20872155318608E-05   3.68395776373777E-20   3.20872155318608E-05   3.34152793760115E-15   3.00000000000000E+00
      3.00000000000000E+00   0.00000000000000E+00   0.00000000000000E+00   0.00000000000000E+00   0.00000000000000E+00
      0.00000000000000E+00   2.19110267274110E-15
      6.92444444444445E-01
      0.00000000000000E+00   0.00000000000000E+00   0.00000000000000E+00   0.00000000000000E+00  -9.55112978566262E-19
     -1.74078192076713E-15  -1.74173703374569E-15  -7.00305141340048E-15   0.00000000000000E+00   0.00000000000000E+00
      0.00000000000000E+00   0.00000000000000E+00  -3.21500434320540E-05  -3.03086885648226E-24  -3.21500434320540E-05
      1.41585764195153E-15   2.07733333333333E+00   2.07733333333333E+00   0.00000000000000E+00   0.00000000000000E+00
      3.21500434337957E-05   3.68457898305661E-20   3.21500434337957E-05   3.40357028281764E-15   3.00000000000000E+00
      3.00000000000000E+00   0.00000000000000E+00   0.00000000000000E+00   0.00000000000000E+00   0.00000000000000E+00
      0.00000000000000E+00   2.18362348863130E-15
      7.17444444444445E-01
      0.00000000000000E+00   0.00000000000000E+00   0.00000000000000E+00   0.00000000000000E+00  -1.41573744582972E-19
     -1.75089330369844E-15  -1.75103487744303E-15  -7.05738033973342E-15   0.00000000000000E+00   0.00000000000000E+00
      0.00000000000000E+00   0.00000000000000E+00  -3.22118039310692E-05  -3.03666208859861E-24  -3.22118039310692E-05
      1.41585668584590E-15   2.15233333333333E+00   2.15233333333333E+00   0.00000000000000E+00   0.00000000000000E+00
      3.22118039328202E-05   3.68517319011704E-20   3.22118039328202E-05   3.46534040660098E-15   3.00000000000000E+00
      3.00000000000000E+00   0.00000000000000E+00   0.00000000000000E+00   0.00000000000000E+00   0.00000000000000E+00
      0.00000000000000E+00   2.17618324728653E-15
      7.42444444444445E-01
      0.00000000000000E+00   0.00000000000000E+00   0.00000000000000E+00   0.00000000000000E+00  -1.70870888423889E-18
     -1.76308896636393E-15  -1.76479767524817E-15  -7.11151150880520E-15   0.00000000000000E+00   0.00000000000000E+00
      0.00000000000000E+00   0.00000000000000E+00  -3.22726873710383E-05  -3.04235985815760E-24  -3.22726873710383E-05
      1.41585574278276E-15   2.22733333333333E+00   2.22733333333333E+00   0.00000000000000E+00   0.00000000000000E+00
      3.22726873728031E-05   3.68574255615266E-20   3.22726873728031E-05   3.52689380135960E-15   3.00000000000000E+00
      3.00000000000000E+00   0.00000000000000E+00   0.00000000000000E+00   0.00000000000000E+00   0.00000000000000E+00
      0.00000000000000E+00   2.16876196466284E-15
      7.67444444444445E-01
      0.00000000000000E+00   0.00000000000000E+00   0.00000000000000E+00   0.00000000000000E+00  -9.35270455102332E-19
     -1.77674424454181E-15  -1.77767951499691E-15  -7.16546193575107E-15   0.00000000000000E+00   0.00000000000000E+00
      0.00000000000000E+00   0.00000000000000E+00  -3.23327965073891E-05  -3.04804201617298E-24  -3.23327965073891E-05
      1.41585481119163E-15   2.30233333333333E+00   2.30233333333333E+00   0.00000000000000E+00   0.00000000000000E+00
      3.23327965091667E-05   3.68628945969123E-20   3.23327965091667E-05   3.58825767685358E-15   3.00000000000000E+00
      3.00000000000000E+00   0.00000000000000E+00   0.00000000000000E+00   0.00000000000000E+00   0.00000000000000E+00
      0.00000000000000E+00   2.16134944770585E-15
      7.92444444444445E-01
      0.00000000000000E+00   0.00000000000000E+00   0.00000000000000E+00   0.00000000000000E+00   1.63850447001349E-18
     -1.79097152816085E-15  -1.78933302369084E-15  -7.21923694148816E-15   0.00000000000000E+00   0.00000000000000E+00
      0.00000000000000E+00   0.00000000000000E+00  -3.23921864351365E-05  -3.05368185355353E-24  -3.23921864351365E-05
      1.41585389023705E-15   2.37733333333333E+00   2.37733333333333E+00   0.00000000000000E+00   0.00000000000000E+00
      3.23921864369257E-05   3.68681598500527E-20   3.23921864369257E-05   3.64944201916332E-15   3.00000000000000E+00
      3.00000000000000E+00   0.00000000000000E+00   0.00000000000000E+00   0.00000000000000E+00   0.00000000000000E+00
      0.00000000000000E+00   2.15394103208779E-15
      8.17444444444445E-01
      0.00000000000000E+00   0.00000000000000E+00   0.00000000000000E+00   0.00000000000000E+00   8.43429406860745E-18
     -1.80475153509500E-15  -1.79631724102639E-15  -7.27283567246487E-15   0.00000000000000E+00   0.00000000000000E+00
      0.00000000000000E+00   0.00000000000000E+00  -3.24508908608967E-05  -3.05920599375328E-24  -3.24508908608967E-05
      1.41585297941375E-15   2.45233333333333E+00   2.45233333333333E+00   0.00000000000000E+00   0.00000000000000E+00
      3.24508908626929E-05   3.68731806315361E-20   3.24508908626930E-05   3.71044799018643E-15   3.00000000000000E+00
      3.00000000000000E+00   0.00000000000000E+00   0.00000000000000E+00   0.00000000000000E+00   0.00000000000000E+00
      0.00000000000000E+00   2.14653470286469E-15
      8.42444444444445E-01
      0.00000000000000E+00   0.00000000000000E+00   0.00000000000000E+00   0.00000000000000E+00   2.99451559232088E-19
     -1.81836998731713E-15  -1.81807053575790E-15  -7.32625508376894E-15   0.00000000000000E+00   0.00000000000000E+00
      0.00000000000000E+00   0.00000000000000E+00  -3.25089353859140E-05  -3.06460870913466E-24  -3.25089353859140E-05
      1.41585207834128E-15   2.52733333333333E+00   2.52733333333333E+00   0.00000000000000E+00   0.00000000000000E+00
      3.25089353877320E-05   3.68781130143352E-20   3.25089353877320E-05   3.77127340226396E-15   3.00000000000000E+00
      3.00000000000000E+00   0.00000000000000E+00   0.00000000000000E+00   0.00000000000000E+00   0.00000000000000E+00
      0.00000000000000E+00   2.13912960316369E-15
      8.67444444444445E-01
      0.00000000000000E+00   0.00000000000000E+00   0.00000000000000E+00   0.00000000000000E+00   6.02326180453829E-19