DF-ISE text

Info {
  version   = 1.0
  type      = xyplot
  datasets  = [
    "time"
    "substrate OuterVoltage" "substrate InnerVoltage" "substrate QuasiFermiPotential" "substrate DisplacementCurrent" "substrate eCurrent"
    "substrate hCurrent" "substrate TotalCurrent" "substrate Charge" "source OuterVoltage" "source InnerVoltage"
    "source QuasiFermiPotential" "source DisplacementCurrent" "source eCurrent" "source hCurrent" "source TotalCurrent"
    "source Charge" "drain OuterVoltage" "drain InnerVoltage" "drain QuasiFermiPotential" "drain DisplacementCurrent"
    "drain eCurrent" "drain hCurrent" "drain TotalCurrent" "drain Charge" "gate OuterVoltage"
    "gate InnerVoltage" "gate QuasiFermiPotential" "gate DisplacementCurrent" "gate eCurrent" "gate hCurrent"
    "gate TotalCurrent" "gate Charge" ]
  functions = [
    Time
    OuterVoltage InnerVoltage QuasiFermiPotential DisplacementCurrent eCurrent
    hCurrent TotalCurrent Charge OuterVoltage InnerVoltage
    QuasiFermiPotential DisplacementCurrent eCurrent hCurrent TotalCurrent
    Charge OuterVoltage InnerVoltage QuasiFermiPotential DisplacementCurrent
    eCurrent hCurrent TotalCurrent Charge OuterVoltage
    InnerVoltage QuasiFermiPotential DisplacementCurrent eCurrent hCurrent
    TotalCurrent Charge ]
}

Data {
      0.00000000000000E+00
      0.00000000000000E+00   0.00000000000000E+00   0.00000000000000E+00   0.00000000000000E+00   1.56428764907392E-17
     -5.97274916532668E-28   1.56428764901419E-17  -4.78029627745429E-15   0.00000000000000E+00   0.00000000000000E+00
      0.00000000000000E+00   0.00000000000000E+00  -8.20709594213247E-18   2.44566875293911E-28  -8.20709594188790E-18
     -3.03849533992691E-16   0.00000000000000E+00   0.00000000000000E+00   0.00000000000000E+00   0.00000000000000E+00
     -7.43578054860672E-18   3.52730529381381E-28  -7.43578054825399E-18  -3.03849533992691E-16   5.00000000000000E+00
      5.00000000000000E+00   0.00000000000000E+00   0.00000000000000E+00   0.00000000000000E+00   0.00000000000000E+00
      0.00000000000000E+00   5.38799534543966E-15
      1.00000000000000E-02
      0.00000000000000E+00   0.00000000000000E+00   0.00000000000000E+00   0.00000000000000E+00  -1.09432820521028E-17
     -1.23766277561774E-16  -1.34709559613877E-16  -4.79835672127528E-15   0.00000000000000E+00   0.00000000000000E+00
      0.00000000000000E+00   0.00000000000000E+00  -2.02823834130227E-04  -1.45700992594869E-23  -2.02823834130227E-04
     -3.03242380842078E-16   3.00000000000000E-02   3.00000000000000E-02   0.00000000000000E+00   0.00000000000000E+00
      2.02823834130362E-04   9.75831839696341E-21   2.02823834130362E-04  -2.68198097802026E-16   5.00000000000000E+00
      5.00000000000000E+00   0.00000000000000E+00   0.00000000000000E+00   0.00000000000000E+00   0.00000000000000E+00
      0.00000000000000E+00   5.36979719991939E-15
      2.33333333333333E-02
      0.00000000000000E+00   0.00000000000000E+00   0.00000000000000E+00   0.00000000000000E+00   1.43085359346514E-14
     -2.69778548990378E-16   1.40387573856611E-14  -4.82218359530377E-15   0.00000000000000E+00   0.00000000000000E+00
      0.00000000000000E+00   0.00000000000000E+00  -4.46375116309903E-04  -3.26987658394212E-23  -4.46375116309903E-04
     -3.02646938604745E-16   7.00000000000000E-02   7.00000000000000E-02   0.00000000000000E+00   0.00000000000000E+00
      4.46375116295864E-04   1.29842621553798E-20   4.46375116295864E-04  -2.20736374265866E-16   5.00000000000000E+00
      5.00000000000000E+00   0.00000000000000E+00   0.00000000000000E+00   0.00000000000000E+00   0.00000000000000E+00
      0.00000000000000E+00   5.34556690817438E-15
      4.28888888888889E-02
      0.00000000000000E+00   0.00000000000000E+00   0.00000000000000E+00   0.00000000000000E+00   6.62554586658481E-18
     -4.43068314724033E-16  -4.36442768857448E-16  -4.85665472575588E-15   0.00000000000000E+00   0.00000000000000E+00
      0.00000000000000E+00   0.00000000000000E+00  -7.52121574513100E-04  -5.41828938442840E-23  -7.52121574513100E-04
     -3.02174192447738E-16   1.28666666666667E-01   1.28666666666667E-01   0.00000000000000E+00   0.00000000000000E+00
      7.52121574513536E-04   1.35888931443768E-20   7.52121574513536E-04  -1.51291072278965E-16   5.00000000000000E+00
      5.00000000000000E+00   0.00000000000000E+00   0.00000000000000E+00   0.00000000000000E+00   0.00000000000000E+00
      0.00000000000000E+00   5.31011999048258E-15
      6.78888888888889E-02
      0.00000000000000E+00   0.00000000000000E+00   0.00000000000000E+00   0.00000000000000E+00   5.49299053190604E-18
     -5.78792408649938E-16  -5.73299418118032E-16  -4.90001717392559E-15   0.00000000000000E+00   0.00000000000000E+00
      0.00000000000000E+00   0.00000000000000E+00  -1.06775277811822E-03  -7.70309149993208E-23  -1.06775277811822E-03
     -3.02133427298708E-16   2.03666666666667E-01   2.03666666666667E-01   0.00000000000000E+00   0.00000000000000E+00
      1.06775277811879E-03   1.37139815753627E-20   1.06775277811879E-03  -6.28652800387776E-17   5.00000000000000E+00
      5.00000000000000E+00   0.00000000000000E+00   0.00000000000000E+00   0.00000000000000E+00   0.00000000000000E+00
      0.00000000000000E+00   5.26501588126308E-15
      9.28888888888889E-02
      0.00000000000000E+00   0.00000000000000E+00   0.00000000000000E+00   0.00000000000000E+00   3.94130961628421E-17
     -6.54391241691505E-16  -6.14978145528662E-16  -4.94273375572248E-15   0.00000000000000E+00   0.00000000000000E+00
      0.00000000000000E+00   0.00000000000000E+00  -1.31611692278968E-03  -9.50480785532613E-23  -1.31611692278968E-03
     -3.02565125259815E-16   2.78666666666667E-01   2.78666666666667E-01   0.00000000000000E+00   0.00000000000000E+00
      1.31611692279029E-03   1.39235518760814E-20   1.31611692279029E-03   2.50700309580686E-17   5.00000000000000E+00
      5.00000000000000E+00   0.00000000000000E+00   0.00000000000000E+00   0.00000000000000E+00   0.00000000000000E+00
      0.00000000000000E+00   5.22022885002424E-15
      1.17888888888889E-01
      0.00000000000000E+00   0.00000000000000E+00   0.00000000000000E+00   0.00000000000000E+00   3.39768211044477E-17
     -6.98008282039859E-16  -6.64031460935411E-16  -4.98494413288329E-15   0.00000000000000E+00   0.00000000000000E+00
      0.00000000000000E+00   0.00000000000000E+00  -1.51226900768653E-03  -1.09298392741372E-22  -1.51226900768653E-03
     -3.03328060318846E-16   3.53666666666667E-01   3.53666666666667E-01   0.00000000000000E+00   0.00000000000000E+00
      1.51226900768720E-03   1.40964050307111E-20   1.51226900768720E-03   1.12422433653781E-16   5.00000000000000E+00
      5.00000000000000E+00   0.00000000000000E+00   0.00000000000000E+00   0.00000000000000E+00   0.00000000000000E+00
      0.00000000000000E+00   5.17584975954835E-15
      1.42888888888889E-01
      0.00000000000000E+00   0.00000000000000E+00   0.00000000000000E+00   0.00000000000000E+00  -1.57424606382407E-17
     -7.29215794854245E-16  -7.44958255492486E-16  -5.02677400198709E-15   0.00000000000000E+00   0.00000000000000E+00
      0.00000000000000E+00   0.00000000000000E+00  -1.66790057348971E-03  -1.20617092705203E-22  -1.66790057348971E-03
     -3.04311850236437E-16   4.28666666666667E-01   4.28666666666667E-01   0.00000000000000E+00   0.00000000000000E+00
      1.66790057349046E-03   1.42331613066676E-20   1.66790057349046E-03   1.99115230989005E-16   5.00000000000000E+00
      5.00000000000000E+00   0.00000000000000E+00   0.00000000000000E+00   0.00000000000000E+00   0.00000000000000E+00
      0.00000000000000E+00   5.13197062123452E-15
      1.67888888888889E-01
      0.00000000000000E+00   0.00000000000000E+00   0.00000000000000E+00   0.00000000000000E+00  -1.64219940199056E-17
     -7.57576158535441E-16  -7.73998152555347E-16  -5.06832427756385E-15   0.00000000000000E+00   0.00000000000000E+00
      0.00000000000000E+00   0.00000000000000E+00  -1.79200888670069E-03  -1.29650508132269E-22  -1.79200888670069E-03
     -3.05432566298003E-16   5.03666666666667E-01   5.03666666666667E-01   0.00000000000000E+00   0.00000000000000E+00
      1.79200888670147E-03   1.43410220331530E-20   1.79200888670147E-03   2.85076636478805E-16   5.00000000000000E+00
      5.00000000000000E+00   0.00000000000000E+00   0.00000000000000E+00   0.00000000000000E+00   0.00000000000000E+00
      0.00000000000000E+00   5.08868020738304E-15
      1.92888888888889E-01
      0.00000000000000E+00   0.00000000000000E+00   0.00000000000000E+00   0.00000000000000E+00   2.86538036869367E-17
     -7.81842379230890E-16  -7.53188575543953E-16  -5.10963191496226E-15   0.00000000000000E+00   0.00000000000000E+00
      0.00000000000000E+00   0.00000000000000E+00  -1.89152963339498E-03  -1.36898900570069E-22  -1.89152963339498E-03
     -3.06629479356906E-16   5.78666666666667E-01   5.78666666666667E-01   0.00000000000000E+00   0.00000000000000E+00
      1.89152963339573E-03   1.44268736567423E-20   1.89152963339573E-03   3.70201788009581E-16   5.00000000000000E+00
      5.00000000000000E+00   0.00000000000000E+00   0.00000000000000E+00   0.00000000000000E+00   0.00000000000000E+00
      0.00000000000000E+00   5.04605960630959E-15
      2.17888888888889E-01
      0.00000000000000E+00   0.00000000000000E+00   0.00000000000000E+00   0.00000000000000E+00  -2.49153237288601E-18
     -8.00632788273585E-16  -8.03124320646471E-16  -5.15062123406011E-15   0.00000000000000E+00   0.00000000000000E+00
      0.00000000000000E+00   0.00000000000000E+00  -1.97184281890954E-03  -1.42751850324712E-22  -1.97184281890954E-03
     -3.07861954614146E-16   6.53666666666667E-01   6.53666666666667E-01   0.00000000000000E+00   0.00000000000000E+00
      1.97184281891035E-03   1.44954402753787E-20   1.97184281891035E-03   4.54305903623386E-16   5.00000000000000E+00
      5.00000000000000E+00   0.00000000000000E+00   0.00000000000000E+00   0.00000000000000E+00   0.00000000000000E+00
      0.00000000000000E+00   5.00417728505087E-15
      2.42888888888889E-01
      0.00000000000000E+00   0.00000000000000E+00   0.00000000000000E+00   0.00000000000000E+00   4.98334920570333E-18
     -8.19662662647179E-16  -8.14679313441475E-16  -5.19107552445083E-15   0.00000000000000E+00   0.00000000000000E+00
      0.00000000000000E+00   0.00000000000000E+00  -2.03715432760020E-03  -1.47514185837832E-22  -2.03715432760020E-03
     -3.09105400160808E-16   7.28666666666667E-01   7.28666666666667E-01   0.00000000000000E+00   0.00000000000000E+00
      2.03715432760101E-03   1.45498582978398E-20   2.03715432760101E-03   5.37095120930669E-16   5.00000000000000E+00
      5.00000000000000E+00   0.00000000000000E+00   0.00000000000000E+00   0.00000000000000E+00   0.00000000000000E+00
      0.00000000000000E+00   4.96308580368097E-15
      2.67888888888889E-01
      0.00000000000000E+00   0.00000000000000E+00   0.00000000000000E+00   0.00000000000000E+00   8.94730179859588E-18
     -8.42844919790741E-16  -8.33897617992145E-16  -5.23068408624627E-15   0.00000000000000E+00   0.00000000000000E+00
      0.00000000000000E+00   0.00000000000000E+00  -2.09076924858442E-03  -1.51425397916121E-22  -2.09076924858442E-03
     -3.10346487772347E-16   8.03666666666667E-01   8.03666666666667E-01   0.00000000000000E+00   0.00000000000000E+00
      2.09076924858525E-03   1.45930284750911E-20   2.09076924858525E-03   6.18210617661330E-16   5.00000000000000E+00
      5.00000000000000E+00   0.00000000000000E+00   0.00000000000000E+00   0.00000000000000E+00   0.00000000000000E+00
      0.00000000000000E+00   4.92281995635728E-15
      2.92888888888889E-01
      0.00000000000000E+00   0.00000000000000E+00   0.00000000000000E+00   0.00000000000000E+00  -4.34901194324763E-17
     -8.69007771911154E-16  -9.12497891343631E-16  -5.26924685171905E-15   0.00000000000000E+00   0.00000000000000E+00
      0.00000000000000E+00   0.00000000000000E+00  -2.13528139923336E-03  -1.54673858357578E-22  -2.13528139923336E-03
     -3.11578782557402E-16   8.78666666666667E-01   8.78666666666667E-01   0.00000000000000E+00   0.00000000000000E+00
      2.13528139923428E-03   1.46282856150568E-20   2.13528139923428E-03   6.97431712947208E-16   5.00000000000000E+00
      5.00000000000000E+00   0.00000000000000E+00   0.00000000000000E+00   0.00000000000000E+00   0.00000000000000E+00
      0.00000000000000E+00   4.88339392132924E-15
      3.17888888888889E-01
      0.00000000000000E+00   0.00000000000000E+00   0.00000000000000E+00   0.00000000000000E+00  -5.88920311947783E-18
     -8.96381842993828E-16  -9.02271046113305E-16  -5.30694572776672E-15   0.00000000000000E+00   0.00000000000000E+00
      0.00000000000000E+00   0.00000000000000E+00  -2.17272265798558E-03  -1.57408122744969E-22  -2.17272265798558E-03
     -3.12799396758253E-16   9.53666666666667E-01   9.53666666666667E-01   0.00000000000000E+00   0.00000000000000E+00
      2.17272265798648E-03   1.46578834908100E-20   2.17272265798648E-03   7.74943714997517E-16   5.00000000000000E+00
      5.00000000000000E+00   0.00000000000000E+00   0.00000000000000E+00   0.00000000000000E+00   0.00000000000000E+00
      0.00000000000000E+00   4.84480140952746E-15
      3.42888888888889E-01
      0.00000000000000E+00   0.00000000000000E+00   0.00000000000000E+00   0.00000000000000E+00   1.01931167327858E-17
     -9.23246922177989E-16  -9.13053805445203E-16  -5.34429921181074E-15   0.00000000000000E+00   0.00000000000000E+00
      0.00000000000000E+00   0.00000000000000E+00  -2.20468101923170E-03  -1.59742619100620E-22  -2.20468101923170E-03
     -3.14007543940354E-16   1.02866666666667E+00   1.02866666666667E+00   0.00000000000000E+00   0.00000000000000E+00
      2.20468101923261E-03   1.46832422608115E-20   2.20468101923261E-03   8.51291634986755E-16   5.00000000000000E+00
      5.00000000000000E+00   0.00000000000000E+00   0.00000000000000E+00   0.00000000000000E+00   0.00000000000000E+00
      0.00000000000000E+00   4.80701512076435E-15
      3.67888888888889E-01
      0.00000000000000E+00   0.00000000000000E+00   0.00000000000000E+00   0.00000000000000E+00   1.63089287344874E-17
     -9.46641671748147E-16  -9.30332743013659E-16  -5.38180019220389E-15   0.00000000000000E+00   0.00000000000000E+00
      0.00000000000000E+00   0.00000000000000E+00  -2.23239674708059E-03  -1.61768522238045E-22  -2.23239674708059E-03
     -3.15204594797116E-16   1.10366666666667E+00   1.10366666666667E+00   0.00000000000000E+00   0.00000000000000E+00
      2.23239674708152E-03   1.47053721569013E-20   2.23239674708152E-03   9.27017291523916E-16   5.00000000000000E+00
      5.00000000000000E+00   0.00000000000000E+00   0.00000000000000E+00   0.00000000000000E+00   0.00000000000000E+00
      0.00000000000000E+00   4.76998749547709E-15
      3.92888888888889E-01
      0.00000000000000E+00   0.00000000000000E+00   0.00000000000000E+00   0.00000000000000E+00  -8.60734043339219E-18
     -9.67386807403332E-16  -9.75994147836724E-16  -5.41970380656255E-15   0.00000000000000E+00   0.00000000000000E+00
      0.00000000000000E+00   0.00000000000000E+00  -2.25683691564193E-03  -1.63556358588555E-22  -2.25683691564193E-03
     -3.16394569248650E-16   1.17866666666667E+00   1.17866666666667E+00   0.00000000000000E+00   0.00000000000000E+00
      2.25683691564290E-03   1.47250192475740E-20   2.25683691564290E-03   1.00244309679566E-15   5.00000000000000E+00
      5.00000000000000E+00   0.00000000000000E+00   0.00000000000000E+00   0.00000000000000E+00   0.00000000000000E+00
      0.00000000000000E+00   4.73365527901554E-15
      4.17888888888889E-01
      0.00000000000000E+00   0.00000000000000E+00   0.00000000000000E+00   0.00000000000000E+00  -2.26501695054763E-18
     -9.88272202284252E-16  -9.90537219234800E-16  -5.45807482193725E-15   0.00000000000000E+00   0.00000000000000E+00
      0.00000000000000E+00   0.00000000000000E+00  -2.27874847918191E-03  -1.65158918759487E-22  -2.27874847918191E-03
     -3.17583482463816E-16   1.25366666666667E+00   1.25366666666667E+00   0.00000000000000E+00   0.00000000000000E+00
      2.27874847918290E-03   1.47427385764913E-20   2.27874847918290E-03   1.07771080318737E-15   5.00000000000000E+00
      5.00000000000000E+00   0.00000000000000E+00   0.00000000000000E+00   0.00000000000000E+00   0.00000000000000E+00
      0.00000000000000E+00   4.69794750121370E-15
      4.42888888888889E-01
      0.00000000000000E+00   0.00000000000000E+00   0.00000000000000E+00   0.00000000000000E+00  -3.30705862420519E-17
     -1.01173704987017E-15  -1.04480763611222E-15  -5.49689441367881E-15   0.00000000000000E+00   0.00000000000000E+00
      0.00000000000000E+00   0.00000000000000E+00  -2.29869923350406E-03  -1.66619208945772E-22  -2.29869923350406E-03
     -3.18778661340039E-16   1.32866666666667E+00   1.32866666666667E+00   0.00000000000000E+00   0.00000000000000E+00
      2.29869923350511E-03   1.47589359778909E-20   2.29869923350511E-03   1.15287576629984E-15   5.00000000000000E+00
      5.00000000000000E+00   0.00000000000000E+00   0.00000000000000E+00   0.00000000000000E+00   0.00000000000000E+00
      0.00000000000000E+00   4.66279730871900E-15
      4.67888888888889E-01
      0.00000000000000E+00   0.00000000000000E+00   0.00000000000000E+00   0.00000000000000E+00   9.96660685899173E-18
     -1.03840659541534E-15  -1.02843998855635E-15  -5.53612156059312E-15   0.00000000000000E+00   0.00000000000000E+00
      0.00000000000000E+00   0.00000000000000E+00  -2.31711525676131E-03  -1.67967840260291E-22  -2.31711525676131E-03
     -3.19987766096474E-16   1.40366666666667E+00   1.40366666666667E+00   0.00000000000000E+00   0.00000000000000E+00
      2.31711525676233E-03   1.47739284208568E-20   2.31711525676233E-03   1.22796224421884E-15   5.00000000000000E+00
      5.00000000000000E+00   0.00000000000000E+00   0.00000000000000E+00   0.00000000000000E+00   0.00000000000000E+00
      0.00000000000000E+00   4.62814708247075E-15
      4.92888888888889E-01
      0.00000000000000E+00   0.00000000000000E+00   0.00000000000000E+00   0.00000000000000E+00  -1.54026854868358E-17
     -1.06681992807790E-15  -1.08222261356473E-15  -5.57573057901142E-15   0.00000000000000E+00   0.00000000000000E+00
      0.00000000000000E+00   0.00000000000000E+00  -2.33430653733861E-03  -1.69226760587621E-22  -2.33430653733861E-03
     -3.21217523133566E-16   1.47866666666667E+00   1.47866666666667E+00   0.00000000000000E+00   0.00000000000000E+00
      2.33430653733970E-03   1.47879532092215E-20   2.33430653733970E-03   1.30298950770722E-15   5.00000000000000E+00
      5.00000000000000E+00   0.00000000000000E+00   0.00000000000000E+00   0.00000000000000E+00   0.00000000000000E+00
      0.00000000000000E+00   4.59395859443777E-15
      5.17888888888889E-01
      0.00000000000000E+00   0.00000000000000E+00   0.00000000000000E+00   0.00000000000000E+00  -1.15519890392300E-17
     -1.09710205144863E-15  -1.10865404048786E-15  -5.61571204829803E-15   0.00000000000000E+00   0.00000000000000E+00
      0.00000000000000E+00   0.00000000000000E+00  -2.35049638833589E-03  -1.70413130468467E-22  -2.35049638833589E-03
     -3.22472765231362E-16   1.55366666666667E+00   1.55366666666667E+00   0.00000000000000E+00   0.00000000000000E+00
      2.35049638833699E-03   1.48011902875738E-20   2.35049638833699E-03   1.37797612791948E-15   5.00000000000000E+00
      5.00000000000000E+00   0.00000000000000E+00   0.00000000000000E+00   0.00000000000000E+00   0.00000000000000E+00
      0.00000000000000E+00   4.56020868560992E-15
      5.42888888888889E-01
      0.00000000000000E+00   0.00000000000000E+00   0.00000000000000E+00   0.00000000000000E+00   1.58559076779236E-17
     -1.13592929716181E-15  -1.12007338948389E-15  -5.65605460226083E-15   0.00000000000000E+00   0.00000000000000E+00
      0.00000000000000E+00   0.00000000000000E+00  -2.36584823126243E-03  -1.71538988440713E-22  -2.36584823126243E-03
     -3.23755922207309E-16   1.62866666666667E+00   1.62866666666667E+00   0.00000000000000E+00   0.00000000000000E+00
      2.36584823126355E-03   1.48137808079847E-20   2.36584823126355E-03   1.45293324098050E-15   5.00000000000000E+00
      5.00000000000000E+00   0.00000000000000E+00   0.00000000000000E+00   0.00000000000000E+00   0.00000000000000E+00
      0.00000000000000E+00   4.52687728348764E-15
      5.67888888888889E-01
      0.00000000000000E+00   0.00000000000000E+00   0.00000000000000E+00   0.00000000000000E+00  -7.47478082765240E-18
     -1.19849692805021E-15  -1.20597170887786E-15  -5.69675033048919E-15   0.00000000000000E+00   0.00000000000000E+00
      0.00000000000000E+00   0.00000000000000E+00  -2.38048109311442E-03  -1.72612101196764E-22  -2.38048109311442E-03
     -3.25066964407178E-16   1.70366666666667E+00   1.70366666666667E+00   0.00000000000000E+00   0.00000000000000E+00
      2.38048109311563E-03   1.48258275782064E-20   2.38048109311563E-03   1.52786989244537E-15   5.00000000000000E+00
      5.00000000000000E+00   0.00000000000000E+00   0.00000000000000E+00   0.00000000000000E+00   0.00000000000000E+00
      0.00000000000000E+00   4.49394740245100E-15
      5.92888888888889E-01
      0.00000000000000E+00   0.00000000000000E+00   0.00000000000000E+00   0.00000000000000E+00  -1.33640806642182E-17
     -1.29630390891483E-15  -1.30966798957905E-15  -5.73777042320919E-15   0.00000000000000E+00   0.00000000000000E+00
      0.00000000000000E+00   0.00000000000000E+00  -2.39448929031239E-03  -1.73639958112627E-22  -2.39448929031239E-03
     -3.26404348723597E-16   1.77866666666667E+00   1.77866666666667E+00   0.00000000000000E+00   0.00000000000000E+00
      2.39448929031370E-03   1.48374107006838E-20   2.39448929031370E-03   1.60278211622449E-15   5.00000000000000E+00
      5.00000000000000E+00   0.00000000000000E+00   0.00000000000000E+00   0.00000000000000E+00   0.00000000000000E+00
      0.00000000000000E+00   4.46139265570830E-15
      6.17888888888889E-01
      0.00000000000000E+00   0.00000000000000E+00   0.00000000000000E+00   0.00000000000000E+00   4.21998249634075E-13
     -1.40917880377013E-15   4.20589070830305E-13  -5.77906125703554E-15   0.00000000000000E+00   0.00000000000000E+00
      0.00000000000000E+00   0.00000000000000E+00  -2.40795268743760E-03  -1.74677507359279E-22  -2.40795268743760E-03
     -3.27766094565643E-16   1.85366666666667E+00   1.85366666666667E+00   0.00000000000000E+00   0.00000000000000E+00
      2.40795268701701E-03   1.47999922603033E-20   2.40795268701701E-03   1.67765196377097E-15   5.00000000000000E+00
      5.00000000000000E+00   0.00000000000000E+00   0.00000000000000E+00   0.00000000000000E+00   0.00000000000000E+00
      0.00000000000000E+00   4.42917538783022E-15
      6.42888888888889E-01
      0.00000000000000E+00   0.00000000000000E+00   0.00000000000000E+00   0.00000000000000E+00   1.22165149124316E-13
     -1.50013357936865E-15   1.20665015544948E-13  -5.82055191877539E-15   0.00000000000000E+00   0.00000000000000E+00
      0.00000000000000E+00   0.00000000000000E+00  -2.42094097710694E-03  -1.75615543668877E-22  -2.42094097710694E-03
     -3.29150561238259E-16   1.92866666666667E+00   1.92866666666667E+00   0.00000000000000E+00   0.00000000000000E+00
      2.42094097698627E-03   1.48451782691468E-20   2.42094097698627E-03   1.75245165345046E-15   5.00000000000000E+00
      5.00000000000000E+00   0.00000000000000E+00   0.00000000000000E+00   0.00000000000000E+00   0.00000000000000E+00
      0.00000000000000E+00   4.39725082656319E-15
      6.67888888888889E-01
      0.00000000000000E+00   0.00000000000000E+00   0.00000000000000E+00   0.00000000000000E+00   3.40587284515210E-14
     -1.56013792802203E-15   3.24985905234989E-14  -5.86216607771675E-15   0.00000000000000E+00   0.00000000000000E+00
      0.00000000000000E+00   0.00000000000000E+00  -2.43351482969850E-03  -1.76526198016241E-22  -2.43351482969850E-03
     -3.30556775657194E-16   2.00366666666667E+00   2.00366666666667E+00   0.00000000000000E+00   0.00000000000000E+00
      2.43351482966601E-03   1.48696049386949E-20   2.43351482966601E-03   1.82714975520133E-15   5.00000000000000E+00
      5.00000000000000E+00   0.00000000000000E+00   0.00000000000000E+00   0.00000000000000E+00   0.00000000000000E+00
      0.00000000000000E+00   4.36557309817261E-15
      6.92888888888889E-01
      0.00000000000000E+00   0.00000000000000E+00   0.00000000000000E+00   0.00000000000000E+00   6.36497440755860E-15
     -1.59765083626556E-15   4.76732357129304E-15  -5.90383120606418E-15   0.00000000000000E+00   0.00000000000000E+00
      0.00000000000000E+00   0.00000000000000E+00  -2.44572606398560E-03  -1.77412734257451E-22  -2.44572606398560E-03
     -3.31984410922775E-16   2.07866666666667E+00   2.07866666666667E+00   0.00000000000000E+00   0.00000000000000E+00
      2.44572606398083E-03   1.48802594030876E-20   2.44572606398083E-03   1.90171580478252E-15   5.00000000000000E+00
      5.00000000000000E+00   0.00000000000000E+00   0.00000000000000E+00   0.00000000000000E+00   0.00000000000000E+00
      0.00000000000000E+00   4.33409981220444E-15
      7.17888888888889E-01
      0.00000000000000E+00   0.00000000000000E+00   0.00000000000000E+00   0.00000000000000E+00  -1.57131045951222E-15
     -1.61952888448794E-15  -3.19083934400016E-15  -5.94548349808862E-15   0.00000000000000E+00   0.00000000000000E+00
      0.00000000000000E+00   0.00000000000000E+00  -2.45761767839848E-03  -1.78279084100111E-22  -2.45761767839848E-03
     -3.33433548412623E-16   2.15366666666667E+00   2.15366666666667E+00   0.00000000000000E+00   0.00000000000000E+00
      2.45761767840167E-03   1.48903206617086E-20   2.45761767840167E-03   1.97612227864644E-15   5.00000000000000E+00
      5.00000000000000E+00   0.00000000000000E+00   0.00000000000000E+00   0.00000000000000E+00   0.00000000000000E+00
      0.00000000000000E+00   4.30279476785480E-15
      7.42888888888889E-01
      0.00000000000000E+00   0.00000000000000E+00   0.00000000000000E+00   0.00000000000000E+00  -2.94985969872331E-15
     -1.63185699800605E-15  -4.58171669672937E-15  -5.98706961261105E-15   0.00000000000000E+00   0.00000000000000E+00
      0.00000000000000E+00   0.00000000000000E+00  -2.46922375856948E-03  -1.79128900452820E-22  -2.46922375856948E-03
     -3.34904317876453E-16   2.22866666666667E+00   2.22866666666667E+00   0.00000000000000E+00   0.00000000000000E+00
      2.46922375857406E-03   1.49001642050704E-20   2.46922375857406E-03   2.05034469714290E-15   5.00000000000000E+00
      5.00000000000000E+00   0.00000000000000E+00   0.00000000000000E+00   0.00000000000000E+00   0.00000000000000E+00
      0.00000000000000E+00   4.27162923334461E-15
      7.67888888888889E-01
      0.00000000000000E+00   0.00000000000000E+00   0.00000000000000E+00   0.00000000000000E+00  -3.16108171061479E-15
     -1.64024266915230E-15  -4.80132437976708E-15  -6.02854637069130E-15   0.00000000000000E+00   0.00000000000000E+00
      0.00000000000000E+00   0.00000000000000E+00  -2.48056946296775E-03  -1.79964791140941E-22  -2.48056946296775E-03
     -3.36396510896602E-16   2.30366666666667E+00   2.30366666666667E+00   0.00000000000000E+00   0.00000000000000E+00
      2.48056946297255E-03   1.49093564964203E-20   2.48056946297255E-03   2.12436095525018E-15   5.00000000000000E+00
      5.00000000000000E+00   0.00000000000000E+00   0.00000000000000E+00   0.00000000000000E+00   0.00000000000000E+00
      0.00000000000000E+00   4.24058192633772E-15
      7.92888888888889E-01
      0.00000000000000E+00   0.00000000000000E+00   0.00000000000000E+00   0.00000000000000E+00  -6.35104374441390E-15
     -1.64907458333216E-15  -8.00011832774606E-15  -6.06987854220092E-15   0.00000000000000E+00   0.00000000000000E+00
      0.00000000000000E+00   0.00000000000000E+00  -2.49167240269131E-03  -1.80785751574942E-22  -2.49167240269131E-03
     -3.37909318883923E-16   2.37866666666667E+00   2.37866666666667E+00   0.00000000000000E+00   0.00000000000000E+00
      2.49167240269932E-03   1.49148952504920E-20   2.49167240269932E-03   2.19815023405505E-15   5.00000000000000E+00
      5.00000000000000E+00   0.00000000000000E+00   0.00000000000000E+00   0.00000000000000E+00   0.00000000000000E+00
      0.00000000000000E+00   4.20963762702980E-15
      8.17888888888889E-01
      0.00000000000000E+00   0.00000000000000E+00   0.00000000000000E+00   0.00000000000000E+00  -3.20072122985817E-15
     -1.66104702488440E-15  -4.86176825474257E-15  -6.11105989178183E-15   0.00000000000000E+00   0.00000000000000E+00
      0.00000000000000E+00   0.00000000000000E+00  -2.50253988215224E-03  -1.81589076308817E-22  -2.50253988215224E-03
     -3.39440975218679E-16   2.45366666666667E+00   2.45366666666667E+00   0.00000000000000E+00   0.00000000000000E+00
      2.50253988215710E-03   1.49038506064269E-20   2.50253988215710E-03   2.27170704552312E-15   5.00000000000000E+00
      5.00000000000000E+00   0.00000000000000E+00   0.00000000000000E+00   0.00000000000000E+00   0.00000000000000E+00
      0.00000000000000E+00   4.17879382147739E-15
      8.42888888888889E-01
      0.00000000000000E+00   0.00000000000000E+00   0.00000000000000E+00   0.00000000000000E+00  -2.97251085192274E-15
     -1.67687598375924E-15  -4.64938683568198E-15  -6.15205782935159E-15   0.00000000000000E+00   0.00000000000000E+00
      0.00000000000000E+00   0.00000000000000E+00  -2.51318199021978E-03  -1.82374157870416E-22  -2.51318199021978E-03
     -3.40989567888418E-16   2.52866666666667E+00   2.52866666666667E+00   0.00000000000000E+00   0.00000000000000E+00
      2.51318199022443E-03   1.49287976825602E-20   2.51318199022443E-03   2.34500835373377E-15   5.00000000000000E+00
      5.00000000000000E+00   0.00000000000000E+00   0.00000000000000E+00   0.00000000000000E+00   0.00000000000000E+00
      0.00000000000000E+00   4.14803904350623E-15
      8.67888888888889E-01
      0.00000000000000E+00   0.00000000000000E+00   0.00000000000000E+00   0.00000000000000E+00  -3.05711291231903E-15