DF-ISE text

Info {
  version   = 1.0
  type      = xyplot
  datasets  = [
    "time"
    "substrate OuterVoltage" "substrate InnerVoltage" "substrate QuasiFermiPotential" "substrate DisplacementCurrent" "substrate eCurrent"
    "substrate hCurrent" "substrate TotalCurrent" "substrate Charge" "source OuterVoltage" "source InnerVoltage"
    "source QuasiFermiPotential" "source DisplacementCurrent" "source eCurrent" "source hCurrent" "source TotalCurrent"
    "source Charge" "drain OuterVoltage" "drain InnerVoltage" "drain QuasiFermiPotential" "drain DisplacementCurrent"
    "drain eCurrent" "drain hCurrent" "drain TotalCurrent" "drain Charge" "gate OuterVoltage"
    "gate InnerVoltage" "gate QuasiFermiPotential" "gate DisplacementCurrent" "gate eCurrent" "gate hCurrent"
    "gate TotalCurrent" "gate Charge" ]
  functions = [
    Time
    OuterVoltage InnerVoltage QuasiFermiPotential DisplacementCurrent eCurrent
    hCurrent TotalCurrent Charge OuterVoltage InnerVoltage
    QuasiFermiPotential DisplacementCurrent eCurrent hCurrent TotalCurrent
    Charge OuterVoltage InnerVoltage QuasiFermiPotential DisplacementCurrent
    eCurrent hCurrent TotalCurrent Charge OuterVoltage
    InnerVoltage QuasiFermiPotential DisplacementCurrent eCurrent hCurrent
    TotalCurrent Charge ]
}

Data {
      0.00000000000000E+00
      0.00000000000000E+00   0.00000000000000E+00   0.00000000000000E+00   0.00000000000000E+00   9.84545092872613E-35
      9.70037936190397E-17   9.70037936190397E-17   3.68581641957949E-17   0.00000000000000E+00   0.00000000000000E+00
      0.00000000000000E+00   0.00000000000000E+00   2.64011265643900E-34   7.97472383912748E-17   7.97472383912748E-17
     -8.83227331612662E-16   0.00000000000000E+00   0.00000000000000E+00   0.00000000000000E+00   0.00000000000000E+00
     -2.30867582811480E-34  -1.76751032010314E-16  -1.76751032010314E-16  -7.60837333356467E-16   1.00000000000000E+00
      1.00000000000000E+00   0.00000000000000E+00   0.00000000000000E+00   0.00000000000000E+00   0.00000000000000E+00
      0.00000000000000E+00   1.60720650077333E-15
      1.00000000000000E-02
      0.00000000000000E+00   0.00000000000000E+00   0.00000000000000E+00   0.00000000000000E+00  -2.57000079019095E-20
     -4.21465529117191E-05  -4.21465529117192E-05   3.69033833967655E-17   0.00000000000000E+00   0.00000000000000E+00
      0.00000000000000E+00   0.00000000000000E+00  -2.16280451399339E-21  -1.07110093954476E-03  -1.07110093954476E-03
     -8.76337225277715E-16   3.00000000000000E-02   3.00000000000000E-02   0.00000000000000E+00   0.00000000000000E+00
      2.50407175952868E-21   1.11324749245648E-03   1.11324749245648E-03  -7.52513222150268E-16   1.00000000000000E+00
      1.00000000000000E+00   0.00000000000000E+00   0.00000000000000E+00   0.00000000000000E+00   0.00000000000000E+00
      0.00000000000000E+00   1.59194706403122E-15
      2.23333333333333E-02
      0.00000000000000E+00   0.00000000000000E+00   0.00000000000000E+00   0.00000000000000E+00  -8.01527464295848E-20
     -9.40707393415923E-05  -9.40707393415924E-05   3.69592051021680E-17   0.00000000000000E+00   0.00000000000000E+00
      0.00000000000000E+00   0.00000000000000E+00  -4.87995481344327E-21  -2.39172765888562E-03  -2.39172765888562E-03
     -8.67840794778792E-16   6.70000000000000E-02   6.70000000000000E-02   0.00000000000000E+00   0.00000000000000E+00
      6.06896161554593E-21   2.48579839822721E-03   2.48579839822721E-03  -7.42248587709626E-16   1.00000000000000E+00
      1.00000000000000E+00   0.00000000000000E+00   0.00000000000000E+00   0.00000000000000E+00   0.00000000000000E+00
      0.00000000000000E+00   1.57313017738625E-15
      4.08333333333333E-02
      0.00000000000000E+00   0.00000000000000E+00   0.00000000000000E+00   0.00000000000000E+00  -2.33253318081121E-19
     -1.71807590774497E-04  -1.71807590774497E-04   3.70430612781864E-17   0.00000000000000E+00   0.00000000000000E+00
      0.00000000000000E+00   0.00000000000000E+00  -9.07375524486949E-21  -4.37167836896806E-03  -4.37167836896806E-03
     -8.55098981710944E-16   1.22500000000000E-01   1.22500000000000E-01   0.00000000000000E+00   0.00000000000000E+00
      1.36204746488118E-20   4.54348595974255E-03   4.54348595974255E-03  -7.26855241118356E-16   1.00000000000000E+00
      1.00000000000000E+00   0.00000000000000E+00   0.00000000000000E+00   0.00000000000000E+00   0.00000000000000E+00
      0.00000000000000E+00   1.54491116155111E-15
      6.58333333333333E-02
      0.00000000000000E+00   0.00000000000000E+00   0.00000000000000E+00   0.00000000000000E+00  -5.62325579476533E-19
     -2.76525780984456E-04  -2.76525780984457E-04   3.71566409003651E-17   0.00000000000000E+00   0.00000000000000E+00
      0.00000000000000E+00   0.00000000000000E+00  -1.49517506195495E-20  -7.04515927998698E-03  -7.04515927998698E-03
     -8.37885715402243E-16   1.97500000000000E-01   1.97500000000000E-01   0.00000000000000E+00   0.00000000000000E+00
      3.18344544287557E-20   7.32168506097144E-03   7.32168506097144E-03  -7.06060205837535E-16   1.00000000000000E+00
      1.00000000000000E+00   0.00000000000000E+00   0.00000000000000E+00   0.00000000000000E+00   0.00000000000000E+00
      0.00000000000000E+00   1.50678928033941E-15
      9.08333333333333E-02
      0.00000000000000E+00   0.00000000000000E+00   0.00000000000000E+00   0.00000000000000E+00  -8.93934628586087E-19
     -3.80818609604757E-04  -3.80818609604758E-04   3.72705432353790E-17   0.00000000000000E+00   0.00000000000000E+00
      0.00000000000000E+00   0.00000000000000E+00  -2.09472558860563E-20  -9.71596223979454E-03  -9.71596223979454E-03
     -8.20678649582533E-16   2.72500000000000E-01   2.72500000000000E-01   0.00000000000000E+00   0.00000000000000E+00
      5.97757650490152E-20   1.00967808493993E-02   1.00967808493993E-02  -6.85272876766730E-16   1.00000000000000E+00
      1.00000000000000E+00   0.00000000000000E+00   0.00000000000000E+00   0.00000000000000E+00   0.00000000000000E+00
      0.00000000000000E+00   1.46868098311388E-15
      1.15833333333333E-01
      0.00000000000000E+00   0.00000000000000E+00   0.00000000000000E+00   0.00000000000000E+00  -1.17473234284425E-18
     -4.84650730563240E-04  -4.84650730563241E-04   3.73847869233212E-17   0.00000000000000E+00   0.00000000000000E+00
      0.00000000000000E+00   0.00000000000000E+00  -2.69861345510895E-20  -1.23838989257591E-02  -1.23838989257591E-02
     -8.03477768615663E-16   3.47500000000000E-01   3.47500000000000E-01   0.00000000000000E+00   0.00000000000000E+00
      9.58583293048630E-20   1.28685496563224E-02   1.28685496563224E-02  -6.64493167306549E-16   1.00000000000000E+00
      1.00000000000000E+00   0.00000000000000E+00   0.00000000000000E+00   0.00000000000000E+00   0.00000000000000E+00
      0.00000000000000E+00   1.43058614899889E-15
      1.40833333333333E-01
      0.00000000000000E+00   0.00000000000000E+00   0.00000000000000E+00   0.00000000000000E+00  -1.43001932896308E-18
     -5.87994643541698E-04  -5.87994643541700E-04   3.74993865955308E-17   0.00000000000000E+00   0.00000000000000E+00
      0.00000000000000E+00   0.00000000000000E+00  -3.30627754721163E-20  -1.50488199969780E-02  -1.50488199969780E-02
     -7.86283047255003E-16   4.22500000000000E-01   4.22500000000000E-01   0.00000000000000E+00   0.00000000000000E+00
      1.40445734922774E-19   1.56368146405197E-02   1.56368146405197E-02  -6.43720995924707E-16   1.00000000000000E+00
      1.00000000000000E+00   0.00000000000000E+00   0.00000000000000E+00   0.00000000000000E+00   0.00000000000000E+00
      0.00000000000000E+00   1.39250465658418E-15
      1.65833333333333E-01
      0.00000000000000E+00   0.00000000000000E+00   0.00000000000000E+00   0.00000000000000E+00  -1.67566286909377E-18
     -6.90827863028662E-04  -6.90827863028664E-04   3.76143543292950E-17   0.00000000000000E+00   0.00000000000000E+00
      0.00000000000000E+00   0.00000000000000E+00  -3.91706825261725E-20  -1.77106011990752E-02  -1.77106011990752E-02
     -7.69094449122465E-16   4.97500000000000E-01   4.97500000000000E-01   0.00000000000000E+00   0.00000000000000E+00
      1.94130108506222E-19   1.84014290621039E-02   1.84014290621039E-02  -6.22956276858937E-16   1.00000000000000E+00
      1.00000000000000E+00   0.00000000000000E+00   0.00000000000000E+00   0.00000000000000E+00   0.00000000000000E+00
      0.00000000000000E+00   1.35443637165211E-15
      1.90833333333333E-01
      0.00000000000000E+00   0.00000000000000E+00   0.00000000000000E+00   0.00000000000000E+00  -1.91640413934363E-18
     -7.93131449462694E-04  -7.93131449462696E-04   3.77297004384674E-17   0.00000000000000E+00   0.00000000000000E+00
      0.00000000000000E+00   0.00000000000000E+00  -4.52984051800204E-20  -2.03691358744423E-02  -2.03691358744423E-02
     -7.51911925841879E-16   5.72500000000000E-01   5.72500000000000E-01   0.00000000000000E+00   0.00000000000000E+00
      2.57015108905066E-19   2.11622673239050E-02   2.11622673239050E-02  -6.02198916960866E-16   1.00000000000000E+00
      1.00000000000000E+00   0.00000000000000E+00   0.00000000000000E+00   0.00000000000000E+00   0.00000000000000E+00
      0.00000000000000E+00   1.31638114236428E-15
      2.15833333333333E-01
      0.00000000000000E+00   0.00000000000000E+00   0.00000000000000E+00   0.00000000000000E+00  -2.15342127299700E-18
     -8.94889138182017E-04  -8.94889138182019E-04   3.78454340225049E-17   0.00000000000000E+00   0.00000000000000E+00
      0.00000000000000E+00   0.00000000000000E+00  -5.14352890465241E-20  -2.30243304108909E-02  -2.30243304108909E-02
     -7.34735418939276E-16   6.47500000000000E-01   6.47500000000000E-01   0.00000000000000E+00   0.00000000000000E+00
      3.28843643711872E-19   2.39192195490729E-02   2.39192195490729E-02  -5.81448817266478E-16   1.00000000000000E+00
      1.00000000000000E+00   0.00000000000000E+00   0.00000000000000E+00   0.00000000000000E+00   0.00000000000000E+00
      0.00000000000000E+00   1.27833880218325E-15
      2.40833333333333E-01
      0.00000000000000E+00   0.00000000000000E+00   0.00000000000000E+00   0.00000000000000E+00  -2.38701723677646E-18
     -9.96086780109879E-04  -9.96086780109881E-04   3.79615632800599E-17   0.00000000000000E+00   0.00000000000000E+00
      0.00000000000000E+00   0.00000000000000E+00  -5.75733637241375E-20  -2.56761014080149E-02  -2.56761014080149E-02
     -7.17564860520089E-16   7.22500000000000E-01   7.22500000000000E-01   0.00000000000000E+00   0.00000000000000E+00
      4.09155435069899E-19   2.66721881881248E-02   2.66721881881248E-02  -5.60705872718974E-16   1.00000000000000E+00
      1.00000000000000E+00   0.00000000000000E+00   0.00000000000000E+00   0.00000000000000E+00   0.00000000000000E+00
      0.00000000000000E+00   1.24030916995900E-15
      2.65833333333333E-01
      0.00000000000000E+00   0.00000000000000E+00   0.00000000000000E+00   0.00000000000000E+00  -2.61729294149862E-18
     -1.09671196230797E-03  -1.09671196230798E-03   3.80780956270214E-17   0.00000000000000E+00   0.00000000000000E+00
      0.00000000000000E+00   0.00000000000000E+00  -6.37072526567652E-20  -2.83243739836573E-02  -2.83243739836573E-02
     -7.00400172524320E-16   7.97500000000000E-01   7.97500000000000E-01   0.00000000000000E+00   0.00000000000000E+00
      4.97382165383997E-19   2.94210859459652E-02   2.94210859459652E-02  -5.39969968153989E-16   1.00000000000000E+00
      1.00000000000000E+00   0.00000000000000E+00   0.00000000000000E+00   0.00000000000000E+00   0.00000000000000E+00
      0.00000000000000E+00   1.20229204505129E-15
      2.90833333333333E-01
      0.00000000000000E+00   0.00000000000000E+00   0.00000000000000E+00   0.00000000000000E+00  -2.84430105585424E-18
     -1.19675373314957E-03  -1.19675373314957E-03   3.81950379335534E-17   0.00000000000000E+00   0.00000000000000E+00
      0.00000000000000E+00   0.00000000000000E+00  -6.98335675306086E-20  -3.09690800537093E-02  -3.09690800537093E-02
     -6.83241269080648E-16   8.72500000000000E-01   8.72500000000000E-01   0.00000000000000E+00   0.00000000000000E+00
      5.92904988430232E-19   3.21658337868589E-02   3.21658337868589E-02  -5.19240982725862E-16   1.00000000000000E+00
      1.00000000000000E+00   0.00000000000000E+00   0.00000000000000E+00   0.00000000000000E+00   0.00000000000000E+00
      0.00000000000000E+00   1.16428721387296E-15
      3.15833333333333E-01
      0.00000000000000E+00   0.00000000000000E+00   0.00000000000000E+00   0.00000000000000E+00  -3.06808223634982E-18
     -1.29620240226653E-03  -1.29620240226654E-03   3.83123965984056E-17   0.00000000000000E+00   0.00000000000000E+00
      0.00000000000000E+00   0.00000000000000E+00  -7.59503014077853E-20  -3.36101574433642E-02  -3.36101574433642E-02
     -6.66088056915932E-16   9.47500000000000E-01   9.47500000000000E-01   0.00000000000000E+00   0.00000000000000E+00
      6.95091111629201E-19   3.49063598456307E-02   3.49063598456307E-02  -4.98518788728884E-16   1.00000000000000E+00
      1.00000000000000E+00   0.00000000000000E+00   0.00000000000000E+00   0.00000000000000E+00   0.00000000000000E+00
      0.00000000000000E+00   1.12629444904641E-15
      3.40833333333333E-01
      0.00000000000000E+00   0.00000000000000E+00   0.00000000000000E+00   0.00000000000000E+00  -3.28867459478598E-18
     -1.39504938814836E-03  -1.39504938814837E-03   3.84301776108825E-17   0.00000000000000E+00   0.00000000000000E+00
      0.00000000000000E+00   0.00000000000000E+00  -8.20563518483664E-20  -3.62475491164527E-02  -3.62475491164527E-02
     -6.48940435341191E-16   1.02250000000000E+00   1.02250000000000E+00   0.00000000000000E+00   0.00000000000000E+00
      8.03317144121035E-19   3.76425985046010E-02   3.76425985046010E-02  -4.77803251442023E-16   1.00000000000000E+00
      1.00000000000000E+00   0.00000000000000E+00   0.00000000000000E+00   0.00000000000000E+00   0.00000000000000E+00
      0.00000000000000E+00   1.08831350917233E-15
      3.65833333333333E-01
      0.00000000000000E+00   0.00000000000000E+00   0.00000000000000E+00   0.00000000000000E+00  -3.50611641780662E-18
     -1.49328709696408E-03  -1.49328709696408E-03   3.85483866499629E-17   0.00000000000000E+00   0.00000000000000E+00
      0.00000000000000E+00   0.00000000000000E+00  -8.81511823921461E-20  -3.88812023385576E-02  -3.88812023385576E-02
     -6.31798297947116E-16   1.09750000000000E+00   1.09750000000000E+00   0.00000000000000E+00   0.00000000000000E+00
      9.16983485513939E-19   4.03744894355217E-02   4.03744894355217E-02  -4.57094231351727E-16   1.00000000000000E+00
      1.00000000000000E+00   0.00000000000000E+00   0.00000000000000E+00   0.00000000000000E+00   0.00000000000000E+00
      0.00000000000000E+00   1.05034414264888E-15
      3.90833333333333E-01
      0.00000000000000E+00   0.00000000000000E+00   0.00000000000000E+00   0.00000000000000E+00  -3.72044692778351E-18
     -1.59090882854993E-03  -1.59090882854993E-03   3.86670290556611E-17   0.00000000000000E+00   0.00000000000000E+00
      0.00000000000000E+00   0.00000000000000E+00  -9.42345971164179E-20  -4.15110682187773E-02  -4.15110682187773E-02
     -6.14661531346216E-16   1.17250000000000E+00   1.17250000000000E+00   0.00000000000000E+00   0.00000000000000E+00
      1.03552262775994E-18   4.31019770473272E-02   4.31019770473272E-02  -4.36391581919467E-16   1.00000000000000E+00
      1.00000000000000E+00   0.00000000000000E+00   0.00000000000000E+00   0.00000000000000E+00   0.00000000000000E+00
      0.00000000000000E+00   1.01238608421002E-15
      4.15833333333333E-01
      0.00000000000000E+00   0.00000000000000E+00   0.00000000000000E+00   0.00000000000000E+00  -3.93170639297302E-18
     -1.68790869544105E-03  -1.68790869544106E-03   3.87861099366194E-17   0.00000000000000E+00   0.00000000000000E+00
      0.00000000000000E+00   0.00000000000000E+00  -1.00306596630111E-19  -4.41371013975774E-02  -4.41371013975774E-02
     -5.97530018462473E-16   1.24750000000000E+00   1.24750000000000E+00   0.00000000000000E+00   0.00000000000000E+00
      1.15840338816341E-18   4.58250100930184E-02   4.58250100930184E-02  -4.15695152791072E-16   1.00000000000000E+00
      1.00000000000000E+00   0.00000000000000E+00   0.00000000000000E+00   0.00000000000000E+00   0.00000000000000E+00
      0.00000000000000E+00   9.74439061316926E-16
      4.40833333333333E-01
      0.00000000000000E+00   0.00000000000000E+00   0.00000000000000E+00   0.00000000000000E+00  -4.13993602617047E-18
     -1.78428155569118E-03  -1.78428155569119E-03   3.89056342518481E-17   0.00000000000000E+00   0.00000000000000E+00
      0.00000000000000E+00   0.00000000000000E+00  -1.06367288265586E-19  -4.67592594416656E-02  -4.67592594416656E-02
     -5.80403640080062E-16   1.32250000000000E+00   1.32250000000000E+00   0.00000000000000E+00   0.00000000000000E+00
      1.28513247743392E-18   4.85435409973568E-02   4.85435409973568E-02  -3.95004792803021E-16   1.00000000000000E+00
      1.00000000000000E+00   0.00000000000000E+00   0.00000000000000E+00   0.00000000000000E+00   0.00000000000000E+00
      0.00000000000000E+00   9.36502798631235E-16
      4.65833333333333E-01
      0.00000000000000E+00   0.00000000000000E+00   0.00000000000000E+00   0.00000000000000E+00  -4.34517783455710E-18
     -1.88002296153013E-03  -1.88002296153013E-03   3.90256066270385E-17   0.00000000000000E+00   0.00000000000000E+00
      0.00000000000000E+00   0.00000000000000E+00  -1.12416833199972E-19  -4.93775028538852E-02  -4.93775028538852E-02
     -5.63282270432238E-16   1.39750000000000E+00   1.39750000000000E+00   0.00000000000000E+00   0.00000000000000E+00
      1.41525438996917E-18   5.12575258154153E-02   5.12575258154153E-02  -3.74320342198919E-16   1.00000000000000E+00
      1.00000000000000E+00   0.00000000000000E+00   0.00000000000000E+00   0.00000000000000E+00   0.00000000000000E+00
      0.00000000000000E+00   8.98577006004119E-16
      4.90833333333334E-01
      0.00000000000000E+00   0.00000000000000E+00   0.00000000000000E+00   0.00000000000000E+00  -4.54747444198229E-18
     -1.97512910606268E-03  -1.97512910606268E-03   3.91460314998632E-17   0.00000000000000E+00   0.00000000000000E+00
      0.00000000000000E+00   0.00000000000000E+00  -1.18455414797650E-19  -5.19917946475513E-02  -5.19917946475513E-02
     -5.46165781118260E-16   1.47250000000000E+00   1.47250000000000E+00   0.00000000000000E+00   0.00000000000000E+00
      1.54835024220464E-18   5.39669237536140E-02   5.39669237536140E-02  -3.53641638524093E-16   1.00000000000000E+00
      1.00000000000000E+00   0.00000000000000E+00   0.00000000000000E+00   0.00000000000000E+00   0.00000000000000E+00
      0.00000000000000E+00   8.60661388142490E-16
      5.15833333333333E-01
      0.00000000000000E+00   0.00000000000000E+00   0.00000000000000E+00   0.00000000000000E+00  -4.74686892765393E-18
     -2.06959677771460E-03  -2.06959677771460E-03   3.92669131839180E-17   0.00000000000000E+00   0.00000000000000E+00
      0.00000000000000E+00   0.00000000000000E+00  -1.24483220955615E-19  -5.46021001138573E-02  -5.46021001138573E-02
     -5.29054043292031E-16   1.54750000000000E+00   1.54750000000000E+00   0.00000000000000E+00   0.00000000000000E+00
      1.68403600378919E-18   5.66716968915719E-02   5.66716968915719E-02  -3.32968519156681E-16   1.00000000000000E+00
      1.00000000000000E+00   0.00000000000000E+00   0.00000000000000E+00   0.00000000000000E+00   0.00000000000000E+00
      0.00000000000000E+00   8.22755649264795E-16
      5.40833333333333E-01
      0.00000000000000E+00   0.00000000000000E+00   0.00000000000000E+00   0.00000000000000E+00  -4.94340468742395E-18
     -2.16342332183385E-03  -2.16342332183386E-03   3.93882558263204E-17   0.00000000000000E+00   0.00000000000000E+00
      0.00000000000000E+00   0.00000000000000E+00  -1.30500434502377E-19  -5.72083865761207E-02  -5.72083865761207E-02
     -5.11946926405465E-16   1.62250000000000E+00   1.62250000000000E+00   0.00000000000000E+00   0.00000000000000E+00
      1.82196040315322E-18   5.93718098979545E-02   5.93718098979545E-02  -3.12300819982656E-16   1.00000000000000E+00
      1.00000000000000E+00   0.00000000000000E+00   0.00000000000000E+00   0.00000000000000E+00   0.00000000000000E+00
      0.00000000000000E+00   7.84859490561802E-16
      5.65833333333334E-01
      0.00000000000000E+00   0.00000000000000E+00   0.00000000000000E+00   0.00000000000000E+00  -5.13712531115292E-18
     -2.25660660548181E-03  -2.25660660548181E-03   3.95100633874732E-17   0.00000000000000E+00   0.00000000000000E+00
      0.00000000000000E+00   0.00000000000000E+00  -1.36507228618285E-19  -5.98106232756186E-02  -5.98106232756186E-02
     -4.94844297827081E-16   1.69750000000000E+00   1.69750000000000E+00   0.00000000000000E+00   0.00000000000000E+00
      1.96180269209943E-18   6.20672298811004E-02   6.20672298811004E-02  -2.91638374864639E-16   1.00000000000000E+00
      1.00000000000000E+00   0.00000000000000E+00   0.00000000000000E+00   0.00000000000000E+00   0.00000000000000E+00
      0.00000000000000E+00   7.46972609304246E-16
      5.90833333333334E-01
      0.00000000000000E+00   0.00000000000000E+00   0.00000000000000E+00   0.00000000000000E+00  -5.32807446476433E-18
     -2.34914497992810E-03  -2.34914497992811E-03   3.96323397473694E-17   0.00000000000000E+00   0.00000000000000E+00
      0.00000000000000E+00   0.00000000000000E+00  -1.42503765297561E-19  -6.24087814113305E-02  -6.24087814113305E-02
     -4.77746027456413E-16   1.77250000000000E+00   1.77250000000000E+00   0.00000000000000E+00   0.00000000000000E+00
      2.10327038758575E-18   6.47579263912586E-02   6.47579263912586E-02  -2.70981019853064E-16   1.00000000000000E+00
      1.00000000000000E+00   0.00000000000000E+00   0.00000000000000E+00   0.00000000000000E+00   0.00000000000000E+00
      0.00000000000000E+00   7.09094707562107E-16
      6.15833333333334E-01
      0.00000000000000E+00   0.00000000000000E+00   0.00000000000000E+00   0.00000000000000E+00  -5.51629580243288E-18
     -2.44103725352314E-03  -2.44103725352315E-03   3.97550886031119E-17   0.00000000000000E+00   0.00000000000000E+00
      0.00000000000000E+00   0.00000000000000E+00  -1.48490194068553E-19  -6.50028336507116E-02  -6.50028336507116E-02
     -4.60651983483376E-16   1.84750000000000E+00   1.84750000000000E+00   0.00000000000000E+00   0.00000000000000E+00
      2.24609705253806E-18   6.74438709042348E-02   6.74438709042348E-02  -2.50328589278576E-16   1.00000000000000E+00
      1.00000000000000E+00   0.00000000000000E+00   0.00000000000000E+00   0.00000000000000E+00   0.00000000000000E+00
      0.00000000000000E+00   6.71225484158841E-16
      6.40833333333334E-01
      0.00000000000000E+00   0.00000000000000E+00   0.00000000000000E+00   0.00000000000000E+00  -5.70183287344884E-18
     -2.53228265832412E-03  -2.53228265832412E-03   3.98783135692044E-17   0.00000000000000E+00   0.00000000000000E+00
      0.00000000000000E+00   0.00000000000000E+00  -1.54466652215815E-19  -6.75927539551579E-02  -6.75927539551579E-02
     -4.43562035985281E-16   1.92250000000000E+00   1.92250000000000E+00   0.00000000000000E+00   0.00000000000000E+00
      2.39004017574728E-18   7.01250366134820E-02   7.01250366134820E-02  -2.29680920920281E-16   1.00000000000000E+00
      1.00000000000000E+00   0.00000000000000E+00   0.00000000000000E+00   0.00000000000000E+00   0.00000000000000E+00
      0.00000000000000E+00   6.33364643336358E-16
      6.65833333333334E-01
      0.00000000000000E+00   0.00000000000000E+00   0.00000000000000E+00   0.00000000000000E+00  -5.88472905476057E-18
     -2.62288082594508E-03  -2.62288082594509E-03   4.00020180925123E-17   0.00000000000000E+00   0.00000000000000E+00
      0.00000000000000E+00   0.00000000000000E+00  -1.60433266216820E-19  -7.01785177726751E-02  -7.01785177726751E-02
     -4.26476055173279E-16   1.99750000000000E+00   1.99750000000000E+00   0.00000000000000E+00   0.00000000000000E+00
      2.53487918150302E-18   7.28013985986202E-02   7.28013985986202E-02  -2.09037852324965E-16   1.00000000000000E+00
      1.00000000000000E+00   0.00000000000000E+00   0.00000000000000E+00   0.00000000000000E+00   0.00000000000000E+00
      0.00000000000000E+00   5.95511889405731E-16
      6.90833333333334E-01
      0.00000000000000E+00   0.00000000000000E+00   0.00000000000000E+00   0.00000000000000E+00  -6.06502748435830E-18
     -2.71283176107113E-03  -2.71283176107114E-03   4.01262054339712E-17   0.00000000000000E+00   0.00000000000000E+00
      0.00000000000000E+00   0.00000000000000E+00  -1.66390153107919E-19  -7.27601021399389E-02  -7.27601021399389E-02
     -4.09393912034499E-16   2.07250000000000E+00   2.07250000000000E+00   0.00000000000000E+00   0.00000000000000E+00
      2.68041356812294E-18   7.54729339010101E-02   7.54729339010101E-02  -1.88399220339997E-16   1.00000000000000E+00
      1.00000000000000E+00   0.00000000000000E+00   0.00000000000000E+00   0.00000000000000E+00   0.00000000000000E+00
      0.00000000000000E+00   5.57666926940525E-16
      7.15833333333334E-01
      0.00000000000000E+00   0.00000000000000E+00   0.00000000000000E+00   0.00000000000000E+00  -6.24277100063379E-18
     -2.80213581550971E-03  -2.80213581550971E-03   4.02508787258188E-17   0.00000000000000E+00   0.00000000000000E+00
      0.00000000000000E+00   0.00000000000000E+00  -1.72337419293080E-19  -7.53374846709224E-02  -7.53374846709224E-02
     -3.92315478304390E-16   2.14750000000000E+00   2.14750000000000E+00   0.00000000000000E+00   0.00000000000000E+00
      2.82646115673809E-18   7.81396204864321E-02   7.81396204864321E-02  -1.67764863579062E-16   1.00000000000000E+00
      1.00000000000000E+00   0.00000000000000E+00   0.00000000000000E+00   0.00000000000000E+00   0.00000000000000E+00
      0.00000000000000E+00   5.19829463157633E-16
      7.40833333333334E-01
      0.00000000000000E+00   0.00000000000000E+00   0.00000000000000E+00   0.00000000000000E+00  -6.41800208666147E-18
     -2.89079366228517E-03  -2.89079366228518E-03   4.03760411324916E-17   0.00000000000000E+00   0.00000000000000E+00
      0.00000000000000E+00   0.00000000000000E+00  -1.78275164033472E-19  -7.79106445961869E-02  -7.79106445961869E-02
     -3.75240631662866E-16   2.22250000000000E+00   2.22250000000000E+00   0.00000000000000E+00   0.00000000000000E+00
      2.97285652116900E-18   8.08014382584721E-02   8.08014382584721E-02  -1.47134627553883E-16   1.00000000000000E+00
      1.00000000000000E+00   0.00000000000000E+00   0.00000000000000E+00   0.00000000000000E+00   0.00000000000000E+00
      0.00000000000000E+00   4.81999218084258E-16
      7.65833333333334E-01
      0.00000000000000E+00   0.00000000000000E+00   0.00000000000000E+00   0.00000000000000E+00  -6.59076283230147E-18
     -2.97880627694074E-03  -2.97880627694074E-03   4.05016957000804E-17   0.00000000000000E+00   0.00000000000000E+00
      0.00000000000000E+00   0.00000000000000E+00  -1.84203478540415E-19  -8.04795619335920E-02  -8.04795619335920E-02
     -3.58169251844912E-16   2.29750000000000E+00   2.29750000000000E+00   0.00000000000000E+00   0.00000000000000E+00
      3.11944950944003E-18   8.34583682105328E-02   8.34583682105328E-02  -1.26508361105664E-16   1.00000000000000E+00
      1.00000000000000E+00   0.00000000000000E+00   0.00000000000000E+00   0.00000000000000E+00   0.00000000000000E+00
      0.00000000000000E+00   4.44175917250496E-16
      7.90833333333334E-01
      0.00000000000000E+00   0.00000000000000E+00   0.00000000000000E+00   0.00000000000000E+00  -6.76109489416206E-18
     -3.06617491611871E-03  -3.06617491611871E-03   4.06278454509430E-17   0.00000000000000E+00   0.00000000000000E+00
      0.00000000000000E+00   0.00000000000000E+00  -1.90122446708989E-19  -8.30442174108424E-02  -8.30442174108424E-02
     -3.41101222125103E-16   2.37250000000000E+00   2.37250000000000E+00   0.00000000000000E+00   0.00000000000000E+00
      3.26610390341135E-18   8.61103923269611E-02   8.61103923269611E-02  -1.05885915038501E-16   1.00000000000000E+00
      1.00000000000000E+00   0.00000000000000E+00   0.00000000000000E+00   0.00000000000000E+00   0.00000000000000E+00
      0.00000000000000E+00   4.06359291712661E-16
      8.15833333333334E-01
      0.00000000000000E+00   0.00000000000000E+00   0.00000000000000E+00   0.00000000000000E+00  -6.92903946121869E-18
     -3.15290109749420E-03  -3.15290109749420E-03   4.07544933052624E-17   0.00000000000000E+00   0.00000000000000E+00
      0.00000000000000E+00   0.00000000000000E+00  -1.96032147161703E-19  -8.56045929965020E-02  -8.56045929965020E-02
     -3.24036429367752E-16   2.44750000000000E+00   2.44750000000000E+00   0.00000000000000E+00   0.00000000000000E+00
      3.41269620916273E-18   8.87574940939962E-02   8.87574940939962E-02  -8.52671444779949E-17   1.00000000000000E+00
      1.00000000000000E+00   0.00000000000000E+00   0.00000000000000E+00   0.00000000000000E+00   0.00000000000000E+00
      0.00000000000000E+00   3.68549080540484E-16
      8.40833333333334E-01
      0.00000000000000E+00   0.00000000000000E+00   0.00000000000000E+00   0.00000000000000E+00  -7.09463719718098E-18
     -3.23898656662525E-03  -3.23898656662526E-03   4.08816431546577E-17   0.00000000000000E+00   0.00000000000000E+00
      0.00000000000000E+00   0.00000000000000E+00  -2.01932647337461E-19  -8.81606690243852E-02  -8.81606690243852E-02
     -3.06974783312788E-16   2.52250000000000E+00   2.52250000000000E+00   0.00000000000000E+00   0.00000000000000E+00
      3.55911446769113E-18   9.13996555910105E-02   9.13996555910105E-02  -6.46519220565166E-17   1.00000000000000E+00
      1.00000000000000E+00   0.00000000000000E+00   0.00000000000000E+00   0.00000000000000E+00   0.00000000000000E+00
      0.00000000000000E+00   3.30745062214646E-16
      8.65833333333334E-01
      0.00000000000000E+00   0.00000000000000E+00   0.00000000000000E+00   0.00000000000000E+00  -7.25792825969363E-18