DF-ISE text

Info {
  version   = 1.0
  type      = xyplot
  datasets  = [
    "time"
    "substrate OuterVoltage" "substrate InnerVoltage" "substrate QuasiFermiPotential" "substrate DisplacementCurrent" "substrate eCurrent"
    "substrate hCurrent" "substrate TotalCurrent" "substrate Charge" "source OuterVoltage" "source InnerVoltage"
    "source QuasiFermiPotential" "source DisplacementCurrent" "source eCurrent" "source hCurrent" "source TotalCurrent"
    "source Charge" "drain OuterVoltage" "drain InnerVoltage" "drain QuasiFermiPotential" "drain DisplacementCurrent"
    "drain eCurrent" "drain hCurrent" "drain TotalCurrent" "drain Charge" "gate OuterVoltage"
    "gate InnerVoltage" "gate QuasiFermiPotential" "gate DisplacementCurrent" "gate eCurrent" "gate hCurrent"
    "gate TotalCurrent" "gate Charge" ]
  functions = [
    Time
    OuterVoltage InnerVoltage QuasiFermiPotential DisplacementCurrent eCurrent
    hCurrent TotalCurrent Charge OuterVoltage InnerVoltage
    QuasiFermiPotential DisplacementCurrent eCurrent hCurrent TotalCurrent
    Charge OuterVoltage InnerVoltage QuasiFermiPotential DisplacementCurrent
    eCurrent hCurrent TotalCurrent Charge OuterVoltage
    InnerVoltage QuasiFermiPotential DisplacementCurrent eCurrent hCurrent
    TotalCurrent Charge ]
}

Data {
      0.00000000000000E+00
      0.00000000000000E+00   0.00000000000000E+00   0.00000000000000E+00   0.00000000000000E+00   2.58128501821210E-35
      5.62036622779066E-17   5.62036622779066E-17   3.68581641957949E-17   0.00000000000000E+00   0.00000000000000E+00
      0.00000000000000E+00   0.00000000000000E+00   2.66848899534561E-34   6.36934401928143E-17   6.36934401928143E-17
     -3.27866203856210E-16   0.00000000000000E+00   0.00000000000000E+00   0.00000000000000E+00   0.00000000000000E+00
     -1.72632081453558E-34  -1.19897102470721E-16  -1.19897102470721E-16  -2.85433027879499E-16   0.00000000000000E+00
      0.00000000000000E+00   0.00000000000000E+00   0.00000000000000E+00   0.00000000000000E+00   0.00000000000000E+00
      0.00000000000000E+00   5.76441067539914E-16
      1.00000000000000E-02
      0.00000000000000E+00   0.00000000000000E+00   0.00000000000000E+00   0.00000000000000E+00  -2.56998434312315E-20
     -4.21465529927403E-05  -4.21465529927403E-05   3.69033766032499E-17   0.00000000000000E+00   0.00000000000000E+00
      0.00000000000000E+00   0.00000000000000E+00  -2.16286774774736E-21  -1.07113260106934E-03  -1.07113260106934E-03
     -3.20975273770323E-16   3.00000000000000E-02   3.00000000000000E-02   0.00000000000000E+00   0.00000000000000E+00
      2.50413524792287E-21   1.11327915406208E-03   1.11327915406208E-03  -2.77108636700675E-16   0.00000000000000E+00
      0.00000000000000E+00   0.00000000000000E+00   0.00000000000000E+00   0.00000000000000E+00   0.00000000000000E+00
      0.00000000000000E+00   5.61180533867749E-16
      2.23333333333333E-02
      0.00000000000000E+00   0.00000000000000E+00   0.00000000000000E+00   0.00000000000000E+00  -8.01519825186840E-20
     -9.40707389761747E-05  -9.40707389761748E-05   3.69591898768741E-17   0.00000000000000E+00   0.00000000000000E+00
      0.00000000000000E+00   0.00000000000000E+00  -4.88009875604706E-21  -2.39179865318593E-03  -2.39179865318593E-03
     -3.12477825065466E-16   6.70000000000000E-02   6.70000000000000E-02   0.00000000000000E+00   0.00000000000000E+00
      6.06909093269352E-21   2.48586939216210E-03   2.48586939216210E-03  -2.66843660154252E-16   0.00000000000000E+00
      0.00000000000000E+00   0.00000000000000E+00   0.00000000000000E+00   0.00000000000000E+00   0.00000000000000E+00
      0.00000000000000E+00   5.42362295342844E-16
      4.08333333333333E-02
      0.00000000000000E+00   0.00000000000000E+00   0.00000000000000E+00   0.00000000000000E+00  -2.33211178070360E-19
     -1.71807588852485E-04  -1.71807588852485E-04   3.70430332846263E-17   0.00000000000000E+00   0.00000000000000E+00
      0.00000000000000E+00   0.00000000000000E+00  -9.07647123859185E-21  -4.37180897634752E-03  -4.37180897634752E-03
     -2.99734479691510E-16   1.22500000000000E-01   1.22500000000000E-01   0.00000000000000E+00   0.00000000000000E+00
      1.35631971813035E-20   4.54361656520000E-03   4.54361656520000E-03  -2.51449807315393E-16   0.00000000000000E+00
      0.00000000000000E+00   0.00000000000000E+00   0.00000000000000E+00   0.00000000000000E+00   0.00000000000000E+00
      0.00000000000000E+00   5.14141253722277E-16
      6.58333333333333E-02
      0.00000000000000E+00   0.00000000000000E+00   0.00000000000000E+00   0.00000000000000E+00  -5.62320651179489E-19
     -2.76525776186648E-04  -2.76525776186649E-04   3.71565953950374E-17   0.00000000000000E+00   0.00000000000000E+00
      0.00000000000000E+00   0.00000000000000E+00  -1.49522068992293E-20  -7.04537168994516E-03  -7.04537168994516E-03
     -2.82519132185696E-16   1.97500000000000E-01   1.97500000000000E-01   0.00000000000000E+00   0.00000000000000E+00
      3.18349002772723E-20   7.32189746613181E-03   7.32189746613181E-03  -2.30654101881749E-16   0.00000000000000E+00
      0.00000000000000E+00   0.00000000000000E+00   0.00000000000000E+00   0.00000000000000E+00   0.00000000000000E+00
      0.00000000000000E+00   4.76016638672408E-16
      9.08333333333333E-02
      0.00000000000000E+00   0.00000000000000E+00   0.00000000000000E+00   0.00000000000000E+00  -8.93931677137594E-19
     -3.80818601322579E-04  -3.80818601322580E-04   3.72704798826847E-17   0.00000000000000E+00   0.00000000000000E+00
      0.00000000000000E+00   0.00000000000000E+00  -2.09479111746844E-20  -9.71625801611079E-03  -9.71625801611079E-03
     -2.65309971562810E-16   2.72500000000000E-01   2.72500000000000E-01   0.00000000000000E+00   0.00000000000000E+00
      5.97769212838682E-20   1.00970766174334E-02   1.00970766174334E-02  -2.09866119952929E-16   0.00000000000000E+00
      0.00000000000000E+00   0.00000000000000E+00   0.00000000000000E+00   0.00000000000000E+00   0.00000000000000E+00
      0.00000000000000E+00   4.37905611633054E-16
      1.15833333333333E-01
      0.00000000000000E+00   0.00000000000000E+00   0.00000000000000E+00   0.00000000000000E+00  -1.17473128502105E-18
     -4.84650718807677E-04  -4.84650718807679E-04   3.73847053370982E-17   0.00000000000000E+00   0.00000000000000E+00
      0.00000000000000E+00   0.00000000000000E+00  -2.69869949759002E-20  -1.23842798034358E-02  -1.23842798034358E-02
     -2.48106980252391E-16   3.47500000000000E-01   3.47500000000000E-01   0.00000000000000E+00   0.00000000000000E+00
      9.58606487352716E-20   1.28689305222435E-02   1.28689305222435E-02  -1.89085776533047E-16   0.00000000000000E+00
      0.00000000000000E+00   0.00000000000000E+00   0.00000000000000E+00   0.00000000000000E+00   0.00000000000000E+00
      0.00000000000000E+00   3.99808051448339E-16
      1.40833333333333E-01
      0.00000000000000E+00   0.00000000000000E+00   0.00000000000000E+00   0.00000000000000E+00  -1.43001901972477E-18
     -5.87994628600439E-04  -5.87994628600441E-04   3.74992863382971E-17   0.00000000000000E+00   0.00000000000000E+00
      0.00000000000000E+00   0.00000000000000E+00  -3.30638444852659E-20  -1.50492878976174E-02  -1.50492878976174E-02
     -2.30910130834911E-16   4.22500000000000E-01   4.22500000000000E-01   0.00000000000000E+00   0.00000000000000E+00
      1.40449568341104E-19   1.56372825262178E-02   1.56372825262178E-02  -1.68312992179650E-16   0.00000000000000E+00
      0.00000000000000E+00   0.00000000000000E+00   0.00000000000000E+00   0.00000000000000E+00   0.00000000000000E+00
      0.00000000000000E+00   3.61723836676263E-16
      1.65833333333333E-01
      0.00000000000000E+00   0.00000000000000E+00   0.00000000000000E+00   0.00000000000000E+00  -1.67566278594820E-18
     -6.90827844692275E-04  -6.90827844692277E-04   3.76142349323862E-17   0.00000000000000E+00   0.00000000000000E+00
      0.00000000000000E+00   0.00000000000000E+00  -3.91719636048876E-20  -1.77111581948210E-02  -1.77111581948210E-02
     -2.13719384828830E-16   4.97500000000000E-01   4.97500000000000E-01   0.00000000000000E+00   0.00000000000000E+00
      1.94135775841276E-19   1.84019860395132E-02   1.84019860395132E-02  -1.47547684127767E-16   0.00000000000000E+00
      0.00000000000000E+00   0.00000000000000E+00   0.00000000000000E+00   0.00000000000000E+00   0.00000000000000E+00
      0.00000000000000E+00   3.23652834024211E-16
      1.90833333333333E-01
      0.00000000000000E+00   0.00000000000000E+00   0.00000000000000E+00   0.00000000000000E+00  -1.91640412106973E-18
     -7.93131427618489E-04  -7.93131427618491E-04   3.77295614021862E-17   0.00000000000000E+00   0.00000000000000E+00
      0.00000000000000E+00   0.00000000000000E+00  -4.52999021657427E-20  -2.03697842176318E-02  -2.03697842176318E-02
     -1.96534691134705E-16   5.72500000000000E-01   5.72500000000000E-01   0.00000000000000E+00   0.00000000000000E+00
      2.57022901960479E-19   2.11629156452503E-02   2.11629156452503E-02  -1.26789762894069E-16   0.00000000000000E+00
      0.00000000000000E+00   0.00000000000000E+00   0.00000000000000E+00   0.00000000000000E+00   0.00000000000000E+00
      0.00000000000000E+00   2.85594892626588E-16
      2.15833333333333E-01
      0.00000000000000E+00   0.00000000000000E+00   0.00000000000000E+00   0.00000000000000E+00  -2.15342127621072E-18
     -8.94889112592648E-04  -8.94889112592650E-04   3.78452748284803E-17   0.00000000000000E+00   0.00000000000000E+00
      0.00000000000000E+00   0.00000000000000E+00  -5.14370060867077E-20  -2.30250724772838E-02  -2.30250724772838E-02
     -1.79355987714357E-16   6.47500000000000E-01   6.47500000000000E-01   0.00000000000000E+00   0.00000000000000E+00
      3.28853817223443E-19   2.39199615898764E-02   2.39199615898764E-02  -1.06039134313520E-16   0.00000000000000E+00
      0.00000000000000E+00   0.00000000000000E+00   0.00000000000000E+00   0.00000000000000E+00   0.00000000000000E+00
      0.00000000000000E+00   2.47549847199397E-16
      2.40833333333333E-01
      0.00000000000000E+00   0.00000000000000E+00   0.00000000000000E+00   0.00000000000000E+00  -2.38701722215486E-18
     -9.96086738298746E-04  -9.96086738298748E-04   3.79613854992643E-17   0.00000000000000E+00   0.00000000000000E+00
      0.00000000000000E+00   0.00000000000000E+00  -5.75752938229542E-20  -2.56769347072529E-02  -2.56769347072529E-02
     -1.62183285121922E-16   7.22500000000000E-01   7.22500000000000E-01   0.00000000000000E+00   0.00000000000000E+00
      4.09168127502902E-19   2.66730214455516E-02   2.66730214455516E-02  -8.52956459191646E-17   0.00000000000000E+00
      0.00000000000000E+00   0.00000000000000E+00   0.00000000000000E+00   0.00000000000000E+00   0.00000000000000E+00
      0.00000000000000E+00   2.09517545541823E-16
      2.65833333333333E-01
      0.00000000000000E+00   0.00000000000000E+00   0.00000000000000E+00   0.00000000000000E+00  -2.61729289228126E-18
     -1.09671189787643E-03  -1.09671189787644E-03   3.80779017367386E-17   0.00000000000000E+00   0.00000000000000E+00
      0.00000000000000E+00   0.00000000000000E+00  -6.37093776161328E-20  -2.83252911100212E-02  -2.83252911100212E-02
     -1.45016581246751E-16   7.97500000000000E-01   7.97500000000000E-01   0.00000000000000E+00   0.00000000000000E+00
      4.97397373384455E-19   2.94220030078976E-02   2.94220030078976E-02  -6.45590948508067E-17   0.00000000000000E+00
      0.00000000000000E+00   0.00000000000000E+00   0.00000000000000E+00   0.00000000000000E+00   0.00000000000000E+00
      0.00000000000000E+00   1.71497774360819E-16
      2.90833333333333E-01
      0.00000000000000E+00   0.00000000000000E+00   0.00000000000000E+00   0.00000000000000E+00  -2.84430100003596E-18
     -1.19675365815742E-03  -1.19675365815742E-03   3.81948277433619E-17   0.00000000000000E+00   0.00000000000000E+00
      0.00000000000000E+00   0.00000000000000E+00  -6.98358808118738E-20  -3.09700785332901E-02  -3.09700785332901E-02
     -1.27855663902287E-16   8.72500000000000E-01   8.72500000000000E-01   0.00000000000000E+00   0.00000000000000E+00
      5.92922734000600E-19   3.21668321914475E-02   3.21668321914475E-02  -4.38294420091841E-17   0.00000000000000E+00
      0.00000000000000E+00   0.00000000000000E+00   0.00000000000000E+00   0.00000000000000E+00   0.00000000000000E+00
      0.00000000000000E+00   1.33490278168109E-16
      3.15833333333333E-01
      0.00000000000000E+00   0.00000000000000E+00   0.00000000000000E+00   0.00000000000000E+00  -3.06808220348540E-18
     -1.29620232948901E-03  -1.29620232948901E-03   3.83121694042808E-17   0.00000000000000E+00   0.00000000000000E+00
      0.00000000000000E+00   0.00000000000000E+00  -7.59527994541154E-20  -3.36112359898409E-02  -3.36112359898409E-02
     -1.10700416745611E-16   9.47500000000000E-01   9.47500000000000E-01   0.00000000000000E+00   0.00000000000000E+00
      6.95111404764529E-19   3.49074383193299E-02   3.49074383193299E-02  -2.31065850741713E-17   0.00000000000000E+00
      0.00000000000000E+00   0.00000000000000E+00   0.00000000000000E+00   0.00000000000000E+00   0.00000000000000E+00
      0.00000000000000E+00   9.54948324155013E-17
      3.40833333333333E-01
      0.00000000000000E+00   0.00000000000000E+00   0.00000000000000E+00   0.00000000000000E+00  -3.28867450995004E-18
     -1.39504928382054E-03  -1.39504928382055E-03   3.84299356258535E-17   0.00000000000000E+00   0.00000000000000E+00
      0.00000000000000E+00   0.00000000000000E+00  -8.20590258438864E-20  -3.62487040894895E-02  -3.62487040894895E-02
     -9.35507819109163E-17   1.02250000000000E+00   1.02250000000000E+00   0.00000000000000E+00   0.00000000000000E+00
      8.03339913443034E-19   3.76437533733100E-02   3.76437533733100E-02  -2.39045189859635E-18   0.00000000000000E+00
      0.00000000000000E+00   0.00000000000000E+00   0.00000000000000E+00   0.00000000000000E+00   0.00000000000000E+00
      0.00000000000000E+00   5.75112981836590E-17
      3.65833333333333E-01
      0.00000000000000E+00   0.00000000000000E+00   0.00000000000000E+00   0.00000000000000E+00  -3.50611617890478E-18
     -1.49328691478648E-03  -1.49328691478648E-03   3.85481359597268E-17   0.00000000000000E+00   0.00000000000000E+00
      0.00000000000000E+00   0.00000000000000E+00  -8.81540035883311E-20  -3.88824214180528E-02  -3.88824214180528E-02
     -7.64068034260985E-17   1.09750000000000E+00   1.09750000000000E+00   0.00000000000000E+00   0.00000000000000E+00
      9.17008444514876E-19   4.03757083328393E-02   4.03757083328393E-02   1.83192085321449E-17   0.00000000000000E+00
      0.00000000000000E+00   0.00000000000000E+00   0.00000000000000E+00   0.00000000000000E+00   0.00000000000000E+00
      0.00000000000000E+00   1.95394589342270E-17
      3.90833333333333E-01
      0.00000000000000E+00   0.00000000000000E+00   0.00000000000000E+00   0.00000000000000E+00  -3.72044652766621E-18
     -1.59090856462308E-03  -1.59090856462309E-03   3.86667734334483E-17   0.00000000000000E+00   0.00000000000000E+00
      0.00000000000000E+00   0.00000000000000E+00  -9.42375380696763E-20  -4.15123395887292E-02  -4.15123395887292E-02
     -5.92684847933022E-17   1.17250000000000E+00   1.17250000000000E+00   0.00000000000000E+00   0.00000000000000E+00
      1.03554946864281E-18   4.31032481533523E-02   4.31032481533523E-02   3.90227623591920E-17   0.00000000000000E+00
      0.00000000000000E+00   0.00000000000000E+00   0.00000000000000E+00   0.00000000000000E+00   0.00000000000000E+00
      0.00000000000000E+00  -1.84210509993383E-17
      4.15833333333333E-01
      0.00000000000000E+00   0.00000000000000E+00   0.00000000000000E+00   0.00000000000000E+00  -3.93170586849371E-18
     -1.68790836604964E-03  -1.68790836604965E-03   3.87858505022562E-17   0.00000000000000E+00   0.00000000000000E+00
      0.00000000000000E+00   0.00000000000000E+00  -1.00309634429973E-19  -4.41384151582147E-02  -4.41384151582147E-02
     -4.21354672244431E-17   1.24750000000000E+00   1.24750000000000E+00   0.00000000000000E+00   0.00000000000000E+00
      1.15843182856390E-18   4.58263235242644E-02   4.58263235242644E-02   5.97201731859077E-17   0.00000000000000E+00
      0.00000000000000E+00   0.00000000000000E+00   0.00000000000000E+00   0.00000000000000E+00   0.00000000000000E+00
      0.00000000000000E+00  -5.63705564637207E-17
      4.40833333333333E-01
      0.00000000000000E+00   0.00000000000000E+00   0.00000000000000E+00   0.00000000000000E+00  -4.13993546262087E-18
     -1.78428120011947E-03  -1.78428120011947E-03   3.89053705718247E-17   0.00000000000000E+00   0.00000000000000E+00
      0.00000000000000E+00   0.00000000000000E+00  -1.06370399124719E-19  -4.67606052846388E-02  -4.67606052846388E-02
     -2.50075778565227E-17   1.32250000000000E+00   1.32250000000000E+00   0.00000000000000E+00   0.00000000000000E+00
      1.28516222484278E-18   4.85448864847582E-02   4.85448864847582E-02   8.04115860028961E-17   0.00000000000000E+00
      0.00000000000000E+00   0.00000000000000E+00   0.00000000000000E+00   0.00000000000000E+00   0.00000000000000E+00
      0.00000000000000E+00  -9.43093787181981E-17
      4.65833333333333E-01
      0.00000000000000E+00   0.00000000000000E+00   0.00000000000000E+00   0.00000000000000E+00  -4.34517726404273E-18
     -1.88002259481364E-03  -1.88002259481365E-03   3.90253388994505E-17   0.00000000000000E+00   0.00000000000000E+00
      0.00000000000000E+00   0.00000000000000E+00  -1.12420006422089E-19  -4.93788761145353E-02  -4.93788761145353E-02
     -7.88470094431283E-18   1.39750000000000E+00   1.39750000000000E+00   0.00000000000000E+00   0.00000000000000E+00
      1.41528526404964E-18   5.12588987093489E-02   5.12588987093489E-02   1.01097119917237E-16   0.00000000000000E+00
      0.00000000000000E+00   0.00000000000000E+00   0.00000000000000E+00   0.00000000000000E+00   0.00000000000000E+00
      0.00000000000000E+00  -1.32237757872375E-16
      4.90833333333334E-01
      0.00000000000000E+00   0.00000000000000E+00   0.00000000000000E+00   0.00000000000000E+00  -4.54747387931861E-18
     -1.97512873542191E-03  -1.97512873542191E-03   3.91457602885913E-17   0.00000000000000E+00   0.00000000000000E+00
      0.00000000000000E+00   0.00000000000000E+00  -1.18458641821124E-19  -5.19931915758135E-02  -5.19931915758135E-02
      9.23328117143577E-18   1.47250000000000E+00   1.47250000000000E+00   0.00000000000000E+00   0.00000000000000E+00
      1.54838208164752E-18   5.39683203112354E-02   5.39683203112354E-02   1.21776932708968E-16   0.00000000000000E+00
      0.00000000000000E+00   0.00000000000000E+00   0.00000000000000E+00   0.00000000000000E+00   0.00000000000000E+00
      0.00000000000000E+00  -1.70155974168995E-16
      5.15833333333333E-01
      0.00000000000000E+00   0.00000000000000E+00   0.00000000000000E+00   0.00000000000000E+00  -4.74686836862649E-18
     -2.06959640148792E-03  -2.06959640148792E-03   3.92666393694947E-17   0.00000000000000E+00   0.00000000000000E+00
      0.00000000000000E+00   0.00000000000000E+00  -1.24486494851880E-19  -5.46035176611502E-02  -5.46035176611502E-02
      2.63464749329724E-17   1.54750000000000E+00   1.54750000000000E+00   0.00000000000000E+00   0.00000000000000E+00
      1.68406866183689E-18   5.66731140626381E-02   5.66731140626381E-02   1.42451183918254E-16   0.00000000000000E+00
      0.00000000000000E+00   0.00000000000000E+00   0.00000000000000E+00   0.00000000000000E+00   0.00000000000000E+00
      0.00000000000000E+00  -2.08064298220721E-16
      5.40833333333333E-01
      0.00000000000000E+00   0.00000000000000E+00   0.00000000000000E+00   0.00000000000000E+00  -4.94340412788445E-18
     -2.16342293840376E-03  -2.16342293840376E-03   3.93879803333584E-17   0.00000000000000E+00   0.00000000000000E+00
      0.00000000000000E+00   0.00000000000000E+00  -1.30503747602011E-19  -5.72098213709295E-02  -5.72098213709295E-02
      4.34550090641654E-17   1.62250000000000E+00   1.62250000000000E+00   0.00000000000000E+00   0.00000000000000E+00
      1.82199372940538E-18   5.93732443093333E-02   5.93732443093333E-02   1.63120040622367E-16   0.00000000000000E+00
      0.00000000000000E+00   0.00000000000000E+00   0.00000000000000E+00   0.00000000000000E+00   0.00000000000000E+00
      0.00000000000000E+00  -2.45963030019891E-16
      5.65833333333334E-01
      0.00000000000000E+00   0.00000000000000E+00   0.00000000000000E+00   0.00000000000000E+00  -5.13712474753754E-18
     -2.25660621352007E-03  -2.25660621352007E-03   3.95097871746471E-17   0.00000000000000E+00   0.00000000000000E+00
      0.00000000000000E+00   0.00000000000000E+00  -1.36510572654713E-19  -5.98120716871513E-02  -5.98120716871513E-02
      6.05590147819320E-17   1.69750000000000E+00   1.69750000000000E+00   0.00000000000000E+00   0.00000000000000E+00
      1.96183653454662E-18   6.20686779006714E-02   6.20686779006714E-02   1.83783671424853E-16   0.00000000000000E+00
      0.00000000000000E+00   0.00000000000000E+00   0.00000000000000E+00   0.00000000000000E+00   0.00000000000000E+00
      0.00000000000000E+00  -2.83852473381432E-16
      5.90833333333334E-01
      0.00000000000000E+00   0.00000000000000E+00   0.00000000000000E+00   0.00000000000000E+00  -5.32807389469921E-18
     -2.34914457869441E-03  -2.34914457869441E-03   3.96320638035345E-17   0.00000000000000E+00   0.00000000000000E+00
      0.00000000000000E+00   0.00000000000000E+00  -1.42507131527386E-19  -6.24102396027017E-02  -6.24102396027017E-02
      7.76586210040448E-17   1.77250000000000E+00   1.77250000000000E+00   0.00000000000000E+00   0.00000000000000E+00
      2.10330459420347E-18   6.47593841813961E-02   6.47593841813961E-02   2.04442242832096E-16   0.00000000000000E+00
      0.00000000000000E+00   0.00000000000000E+00   0.00000000000000E+00   0.00000000000000E+00   0.00000000000000E+00
      0.00000000000000E+00  -3.21732927639675E-16
      6.15833333333334E-01
      0.00000000000000E+00   0.00000000000000E+00   0.00000000000000E+00   0.00000000000000E+00  -5.51629522138968E-18
     -2.44103684124548E-03  -2.44103684124548E-03   3.97548139786278E-17   0.00000000000000E+00   0.00000000000000E+00
      0.00000000000000E+00   0.00000000000000E+00  -1.48493573195911E-19  -6.50042975468135E-02  -6.50042975468135E-02
      9.47539572195930E-17   1.84750000000000E+00   1.84750000000000E+00   0.00000000000000E+00   0.00000000000000E+00
      2.24613147049265E-18   6.74453343880590E-02   6.74453343880590E-02   2.25095921567463E-16   0.00000000000000E+00
      0.00000000000000E+00   0.00000000000000E+00   0.00000000000000E+00   0.00000000000000E+00   0.00000000000000E+00
      0.00000000000000E+00  -3.59604692765684E-16
      6.40833333333334E-01
      0.00000000000000E+00   0.00000000000000E+00   0.00000000000000E+00   0.00000000000000E+00  -5.70183227585898E-18
     -2.53228223271392E-03  -2.53228223271393E-03   3.98780413698334E-17   0.00000000000000E+00   0.00000000000000E+00
      0.00000000000000E+00   0.00000000000000E+00  -1.54470034475112E-19  -6.75942192791138E-02  -6.75942192791138E-02
      1.11845151194935E-16   1.92250000000000E+00   1.92250000000000E+00   0.00000000000000E+00   0.00000000000000E+00
      2.39007465237058E-18   7.01265015118277E-02   7.01265015118277E-02   2.45744871497884E-16   0.00000000000000E+00
      0.00000000000000E+00   0.00000000000000E+00   0.00000000000000E+00   0.00000000000000E+00   0.00000000000000E+00
      0.00000000000000E+00  -3.97468064062652E-16
      6.65833333333334E-01
      0.00000000000000E+00   0.00000000000000E+00   0.00000000000000E+00   0.00000000000000E+00  -5.88472843462138E-18
     -2.62288038448149E-03  -2.62288038448150E-03   4.00017494798057E-17   0.00000000000000E+00   0.00000000000000E+00
      0.00000000000000E+00   0.00000000000000E+00  -1.60436641419560E-19  -7.01799800667021E-02  -7.01799800667021E-02
      1.28932330516778E-16   1.99750000000000E+00   1.99750000000000E+00   0.00000000000000E+00   0.00000000000000E+00
      2.53491356498862E-18   7.28028604511836E-02   7.28028604511836E-02   2.66389257266679E-16   0.00000000000000E+00
      0.00000000000000E+00   0.00000000000000E+00   0.00000000000000E+00   0.00000000000000E+00   0.00000000000000E+00
      0.00000000000000E+00  -4.35323337263262E-16
      6.90833333333334E-01
      0.00000000000000E+00   0.00000000000000E+00   0.00000000000000E+00   0.00000000000000E+00  -6.06502683585869E-18
     -2.71283130130682E-03  -2.71283130130683E-03   4.01259416223762E-17   0.00000000000000E+00   0.00000000000000E+00
      0.00000000000000E+00   0.00000000000000E+00  -1.66393510625472E-19  -7.27615567583685E-02  -7.27615567583685E-02
      1.46015622023910E-16   2.07250000000000E+00   2.07250000000000E+00   0.00000000000000E+00   0.00000000000000E+00
      2.68044770750702E-18   7.54743880596753E-02   7.54743880596753E-02   2.87029244930398E-16   0.00000000000000E+00
      0.00000000000000E+00   0.00000000000000E+00   0.00000000000000E+00   0.00000000000000E+00   0.00000000000000E+00
      0.00000000000000E+00  -4.73170808576683E-16
      7.15833333333334E-01
      0.00000000000000E+00   0.00000000000000E+00   0.00000000000000E+00   0.00000000000000E+00  -6.24277031757206E-18
     -2.80213533478765E-03  -2.80213533478766E-03   4.02506210124231E-17   0.00000000000000E+00   0.00000000000000E+00
      0.00000000000000E+00   0.00000000000000E+00  -1.72340747887545E-19  -7.53389267073813E-02  -7.53389267073813E-02
      1.63095151128066E-16   2.14750000000000E+00   2.14750000000000E+00   0.00000000000000E+00   0.00000000000000E+00
      2.82649490044279E-18   7.81410620421689E-02   7.81410620421689E-02   3.07664997908483E-16   0.00000000000000E+00
      0.00000000000000E+00   0.00000000000000E+00   0.00000000000000E+00   0.00000000000000E+00   0.00000000000000E+00
      0.00000000000000E+00  -5.11010770048973E-16
      7.40833333333334E-01
      0.00000000000000E+00   0.00000000000000E+00   0.00000000000000E+00   0.00000000000000E+00  -6.41800136290182E-18
     -2.89079315794830E-03  -2.89079315794831E-03   4.03757908351317E-17   0.00000000000000E+00   0.00000000000000E+00
      0.00000000000000E+00   0.00000000000000E+00  -1.78278452173217E-19  -7.79120690207371E-02  -7.79120690207371E-02
      1.80171037875959E-16   2.22250000000000E+00   2.22250000000000E+00   0.00000000000000E+00   0.00000000000000E+00
      2.97288972072314E-18   8.08028621786854E-02   8.08028621786854E-02   3.28296673036352E-16   0.00000000000000E+00
      0.00000000000000E+00   0.00000000000000E+00   0.00000000000000E+00   0.00000000000000E+00   0.00000000000000E+00
      0.00000000000000E+00  -5.48843501747443E-16
      7.65833333333334E-01
      0.00000000000000E+00   0.00000000000000E+00   0.00000000000000E+00   0.00000000000000E+00  -6.59076206198299E-18
     -2.97880574644230E-03  -2.97880574644231E-03   4.05014541569387E-17   0.00000000000000E+00   0.00000000000000E+00
      0.00000000000000E+00   0.00000000000000E+00  -1.84206714353092E-19  -8.04809635728402E-02  -8.04809635728402E-02
      1.97243399686070E-16   2.29750000000000E+00   2.29750000000000E+00   0.00000000000000E+00   0.00000000000000E+00
      3.11948201880390E-18   8.34597693192826E-02   8.34597693192826E-02   3.48924425932969E-16   0.00000000000000E+00
      0.00000000000000E+00   0.00000000000000E+00   0.00000000000000E+00   0.00000000000000E+00   0.00000000000000E+00
      0.00000000000000E+00  -5.86669279775978E-16
      7.90833333333334E-01
      0.00000000000000E+00   0.00000000000000E+00   0.00000000000000E+00   0.00000000000000E+00  -6.76109407598356E-18
     -3.06617435919165E-03  -3.06617435919166E-03   4.06276138373796E-17   0.00000000000000E+00   0.00000000000000E+00
      0.00000000000000E+00   0.00000000000000E+00  -1.90125618718805E-19  -8.30455912677933E-02  -8.30455912677933E-02
      2.14312353618788E-16   2.37250000000000E+00   2.37250000000000E+00   0.00000000000000E+00   0.00000000000000E+00
      3.26613558772973E-18   8.61117656269849E-02   8.61117656269849E-02   3.69548412398878E-16   0.00000000000000E+00
      0.00000000000000E+00   0.00000000000000E+00   0.00000000000000E+00   0.00000000000000E+00   0.00000000000000E+00
      0.00000000000000E+00  -6.24488379855046E-16
      8.15833333333334E-01
      0.00000000000000E+00   0.00000000000000E+00   0.00000000000000E+00   0.00000000000000E+00  -6.92903859458607E-18
     -3.15290051424020E-03  -3.15290051424021E-03   4.07542727207000E-17   0.00000000000000E+00   0.00000000000000E+00
      0.00000000000000E+00   0.00000000000000E+00  -1.96035243783165E-19  -8.56059340315277E-02  -8.56059340315277E-02
      2.31378011007310E-16   2.44750000000000E+00   2.44750000000000E+00   0.00000000000000E+00   0.00000000000000E+00
      3.41272693880148E-18   8.87588345457680E-02   8.87588345457680E-02   3.90168781691435E-16   0.00000000000000E+00
      0.00000000000000E+00   0.00000000000000E+00   0.00000000000000E+00   0.00000000000000E+00   0.00000000000000E+00
      0.00000000000000E+00  -6.62301065419444E-16
      8.40833333333334E-01
      0.00000000000000E+00   0.00000000000000E+00   0.00000000000000E+00   0.00000000000000E+00  -7.09463631106512E-18
     -3.23898597233527E-03  -3.23898597233528E-03   4.08814335661769E-17   0.00000000000000E+00   0.00000000000000E+00
      0.00000000000000E+00   0.00000000000000E+00  -2.01935661962095E-19  -8.81619743587927E-02  -8.81619743587927E-02
      2.48440479754065E-16   2.52250000000000E+00   2.52250000000000E+00   0.00000000000000E+00   0.00000000000000E+00
      3.55914417765109E-18   9.14009603311279E-02   9.14009603311279E-02   4.10785679153027E-16   0.00000000000000E+00
      0.00000000000000E+00   0.00000000000000E+00   0.00000000000000E+00   0.00000000000000E+00   0.00000000000000E+00
      0.00000000000000E+00  -7.00107592473269E-16
      8.65833333333334E-01
      0.00000000000000E+00   0.00000000000000E+00   0.00000000000000E+00   0.00000000000000E+00  -7.25792740269410E-18