DF-ISE text

Info {
  version   = 1.0
  type      = xyplot
  datasets  = [
    "time"
    "substrate OuterVoltage" "substrate InnerVoltage" "substrate QuasiFermiPotential" "substrate DisplacementCurrent" "substrate eCurrent"
    "substrate hCurrent" "substrate TotalCurrent" "substrate Charge" "source OuterVoltage" "source InnerVoltage"
    "source QuasiFermiPotential" "source DisplacementCurrent" "source eCurrent" "source hCurrent" "source TotalCurrent"
    "source Charge" "drain OuterVoltage" "drain InnerVoltage" "drain QuasiFermiPotential" "drain DisplacementCurrent"
    "drain eCurrent" "drain hCurrent" "drain TotalCurrent" "drain Charge" "gate OuterVoltage"
    "gate InnerVoltage" "gate QuasiFermiPotential" "gate DisplacementCurrent" "gate eCurrent" "gate hCurrent"
    "gate TotalCurrent" "gate Charge" ]
  functions = [
    Time
    OuterVoltage InnerVoltage QuasiFermiPotential DisplacementCurrent eCurrent
    hCurrent TotalCurrent Charge OuterVoltage InnerVoltage
    QuasiFermiPotential DisplacementCurrent eCurrent hCurrent TotalCurrent
    Charge OuterVoltage InnerVoltage QuasiFermiPotential DisplacementCurrent
    eCurrent hCurrent TotalCurrent Charge OuterVoltage
    InnerVoltage QuasiFermiPotential DisplacementCurrent eCurrent hCurrent
    TotalCurrent Charge ]
}

Data {
      0.00000000000000E+00
      0.00000000000000E+00   0.00000000000000E+00   0.00000000000000E+00   0.00000000000000E+00   2.98254000807486E-18
     -2.74901977151708E-27   2.98254000532584E-18  -5.38047096852198E-15   0.00000000000000E+00   0.00000000000000E+00
      0.00000000000000E+00   0.00000000000000E+00  -1.39069069282616E-18   1.65312385060034E-27  -1.39069069117304E-18
      1.41118165915486E-15   0.00000000000000E+00   0.00000000000000E+00   0.00000000000000E+00   0.00000000000000E+00
     -1.59184931524885E-18   1.09604775118468E-27  -1.59184931415280E-18   1.41118165915486E-15   3.00000000000000E+00
      3.00000000000000E+00   0.00000000000000E+00   0.00000000000000E+00   0.00000000000000E+00   0.00000000000000E+00
      0.00000000000000E+00   2.55810765021226E-15
      1.00000000000000E-02
      0.00000000000000E+00   0.00000000000000E+00   0.00000000000000E+00   0.00000000000000E+00  -1.10760619731840E-17
     -3.34841846173066E-17  -4.45602465904906E-17  -5.40164138420681E-15   0.00000000000000E+00   0.00000000000000E+00
      0.00000000000000E+00   0.00000000000000E+00  -5.40342760595180E-06  -5.14394365865868E-25  -5.40342760595180E-06
      1.41111579207491E-15   3.00000000000000E-02   3.00000000000000E-02   0.00000000000000E+00   0.00000000000000E+00
      5.40342760599632E-06   2.47820135466644E-20   5.40342760599635E-06   1.44689408837942E-15   3.00000000000000E+00
      3.00000000000000E+00   0.00000000000000E+00   0.00000000000000E+00   0.00000000000000E+00   0.00000000000000E+00
      0.00000000000000E+00   2.54363150375249E-15
      2.33333333333333E-02
      0.00000000000000E+00   0.00000000000000E+00   0.00000000000000E+00   0.00000000000000E+00   9.04663613316477E-17
     -6.93861124750658E-17   2.10802488565819E-17  -5.42950957804519E-15   0.00000000000000E+00   0.00000000000000E+00
      0.00000000000000E+00   0.00000000000000E+00  -1.15141619784162E-05  -1.08565165514217E-24  -1.15141619784162E-05
      1.41103820662962E-15   7.00000000000000E-02   7.00000000000000E-02   0.00000000000000E+00   0.00000000000000E+00
      1.15141619783950E-05   3.31936358233018E-20   1.15141619783951E-05   1.49362621239635E-15   3.00000000000000E+00
      3.00000000000000E+00   0.00000000000000E+00   0.00000000000000E+00   0.00000000000000E+00   0.00000000000000E+00
      0.00000000000000E+00   2.52484515901922E-15
      4.24444444444445E-02
      0.00000000000000E+00   0.00000000000000E+00   0.00000000000000E+00   0.00000000000000E+00   2.08901526422400E-15
     -1.24623500511331E-16   1.96439176371267E-15  -5.46898482309234E-15   0.00000000000000E+00   0.00000000000000E+00
      0.00000000000000E+00   0.00000000000000E+00  -1.82741513317339E-05  -1.72286651211586E-24  -1.82741513317339E-05
      1.41094801874622E-15   1.27333333333333E-01   1.27333333333333E-01   0.00000000000000E+00   0.00000000000000E+00
      1.82741513297695E-05   3.40514421267883E-20   1.82741513297695E-05   1.55883720794477E-15   3.00000000000000E+00
      3.00000000000000E+00   0.00000000000000E+00   0.00000000000000E+00   0.00000000000000E+00   0.00000000000000E+00
      0.00000000000000E+00   2.49919959640135E-15
      6.74444444444444E-02
      0.00000000000000E+00   0.00000000000000E+00   0.00000000000000E+00   0.00000000000000E+00  -6.66491331515749E-20
     -2.37383504887656E-16  -2.37450154020808E-16  -5.52058695015159E-15   0.00000000000000E+00   0.00000000000000E+00
      0.00000000000000E+00   0.00000000000000E+00  -2.41049938853651E-05  -2.27050090157127E-24  -2.41049938853651E-05
      1.41086613355555E-15   2.02333333333333E-01   2.02333333333333E-01   0.00000000000000E+00   0.00000000000000E+00
      2.41049938856025E-05  -1.33811964524756E-21   2.41049938856025E-05   1.64107612661523E-15   3.00000000000000E+00
      3.00000000000000E+00   0.00000000000000E+00   0.00000000000000E+00   0.00000000000000E+00   0.00000000000000E+00
      0.00000000000000E+00   2.46864468998081E-15
      9.24444444444444E-02
      0.00000000000000E+00   0.00000000000000E+00   0.00000000000000E+00   0.00000000000000E+00   2.33671743969715E-18
     -3.73739253822410E-16  -3.71402536382713E-16  -5.57352134302984E-15   0.00000000000000E+00   0.00000000000000E+00
      0.00000000000000E+00   0.00000000000000E+00  -2.73191891494917E-05  -2.57312389250977E-24  -2.73191891494917E-05
      1.41081922654331E-15   2.77333333333333E-01   2.77333333333333E-01   0.00000000000000E+00   0.00000000000000E+00
      2.73191891498631E-05   3.41711728819913E-20   2.73191891498631E-05   1.72027746482827E-15   3.00000000000000E+00
      3.00000000000000E+00   0.00000000000000E+00   0.00000000000000E+00   0.00000000000000E+00   0.00000000000000E+00
      0.00000000000000E+00   2.44242465165827E-15
      1.17444444444444E-01
      0.00000000000000E+00   0.00000000000000E+00   0.00000000000000E+00   0.00000000000000E+00  -9.66303397244425E-19
     -4.62558093653910E-16  -4.63524397051154E-16  -5.62891473651496E-15   0.00000000000000E+00   0.00000000000000E+00
      0.00000000000000E+00   0.00000000000000E+00  -2.88515807999666E-05  -2.72040234476991E-24  -2.88515807999666E-05
      1.41079639364918E-15   3.52333333333333E-01   3.52333333333333E-01   0.00000000000000E+00   0.00000000000000E+00
      2.88515808004301E-05   3.69007224545650E-20   2.88515808004302E-05   1.79724580212727E-15   3.00000000000000E+00
      3.00000000000000E+00   0.00000000000000E+00   0.00000000000000E+00   0.00000000000000E+00   0.00000000000000E+00
      0.00000000000000E+00   2.42087254073850E-15
      1.42444444444444E-01
      0.00000000000000E+00   0.00000000000000E+00   0.00000000000000E+00   0.00000000000000E+00  -2.91992941044884E-17
     -5.09023646702321E-16  -5.38222940806810E-16  -5.68659121955214E-15   0.00000000000000E+00   0.00000000000000E+00
      0.00000000000000E+00   0.00000000000000E+00  -2.95719239307493E-05  -2.82507245303970E-24  -2.95719239307493E-05
      1.41078555224363E-15   4.27333333333333E-01   4.27333333333333E-01   0.00000000000000E+00   0.00000000000000E+00
      2.95719239312874E-05   4.84807570958164E-20   2.95719239312875E-05   1.87280239928389E-15   3.00000000000000E+00
      3.00000000000000E+00   0.00000000000000E+00   0.00000000000000E+00   0.00000000000000E+00   0.00000000000000E+00
      0.00000000000000E+00   2.40300326802461E-15
      1.67444444444444E-01
      0.00000000000000E+00   0.00000000000000E+00   0.00000000000000E+00   0.00000000000000E+00  -2.17559940544871E-16
     -5.43527313978769E-16  -7.61087254523640E-16  -5.74576443122258E-15   0.00000000000000E+00   0.00000000000000E+00
      0.00000000000000E+00   0.00000000000000E+00  -2.99837935779123E-05  -2.82435335108479E-24  -2.99837935779123E-05
      1.41077932188118E-15   5.02333333333333E-01   5.02333333333333E-01   0.00000000000000E+00   0.00000000000000E+00
      2.99837935786733E-05   3.36000539187641E-20   2.99837935786733E-05   1.94752149180294E-15   3.00000000000000E+00
      3.00000000000000E+00   0.00000000000000E+00   0.00000000000000E+00   0.00000000000000E+00   0.00000000000000E+00
      0.00000000000000E+00   2.38746361753847E-15
      1.92444444444444E-01
      0.00000000000000E+00   0.00000000000000E+00   0.00000000000000E+00   0.00000000000000E+00  -5.21641576649427E-16
     -5.74468303469879E-16  -1.09610988011931E-15  -5.80576079070674E-15   0.00000000000000E+00   0.00000000000000E+00
      0.00000000000000E+00   0.00000000000000E+00  -3.02733591781198E-05  -2.85353465107419E-24  -3.02733591781198E-05
      1.41077492773794E-15   5.77333333333333E-01   5.77333333333333E-01   0.00000000000000E+00   0.00000000000000E+00
      3.02733591792159E-05   3.28923981511099E-20   3.02733591792159E-05   2.02169727666970E-15   3.00000000000000E+00
      3.00000000000000E+00   0.00000000000000E+00   0.00000000000000E+00   0.00000000000000E+00   0.00000000000000E+00
      0.00000000000000E+00   2.37328858629911E-15
      2.17444444444444E-01
      0.00000000000000E+00   0.00000000000000E+00   0.00000000000000E+00   0.00000000000000E+00   3.92463455375540E-16
     -6.05661816895589E-16  -2.13198361520049E-16  -5.86633490954025E-15   0.00000000000000E+00   0.00000000000000E+00
      0.00000000000000E+00   0.00000000000000E+00  -3.04997812553756E-05  -2.87433145068407E-24  -3.04997812553756E-05
      1.41077148376668E-15   6.52333333333333E-01   6.52333333333333E-01   0.00000000000000E+00   0.00000000000000E+00
      3.04997812555888E-05   7.16751135864256E-21   3.04997812555888E-05   2.09548439541172E-15   3.00000000000000E+00
      3.00000000000000E+00   0.00000000000000E+00   0.00000000000000E+00   0.00000000000000E+00   0.00000000000000E+00
      0.00000000000000E+00   2.36007903036185E-15
      2.42444444444444E-01
      0.00000000000000E+00   0.00000000000000E+00   0.00000000000000E+00   0.00000000000000E+00   3.28920982740136E-18
     -6.38382802417360E-16  -6.35093592589958E-16  -5.92728254652615E-15   0.00000000000000E+00   0.00000000000000E+00
      0.00000000000000E+00   0.00000000000000E+00  -3.06883876366882E-05  -2.89029849494508E-24  -3.06883876366882E-05
      1.41076860958539E-15   7.27333333333333E-01   7.27333333333333E-01   0.00000000000000E+00   0.00000000000000E+00
      3.06883876373232E-05   3.68223371682176E-20   3.06883876373233E-05   2.16893314499956E-15   3.00000000000000E+00
      3.00000000000000E+00   0.00000000000000E+00   0.00000000000000E+00   0.00000000000000E+00   0.00000000000000E+00
      0.00000000000000E+00   2.34758079194120E-15
      2.67444444444444E-01
      0.00000000000000E+00   0.00000000000000E+00   0.00000000000000E+00   0.00000000000000E+00   5.56888081439674E-14
     -6.73400649813276E-16   5.50154074941541E-14  -5.98838592977019E-15   0.00000000000000E+00   0.00000000000000E+00
      0.00000000000000E+00   0.00000000000000E+00  -3.08535755731726E-05  -2.90998059911632E-24  -3.08535755731726E-05
      1.41076608823102E-15   8.02333333333333E-01   8.02333333333333E-01   0.00000000000000E+00   0.00000000000000E+00
      3.08535755181572E-05  -2.59005096994278E-20   3.08535755181572E-05   2.24203508876618E-15   3.00000000000000E+00
      3.00000000000000E+00   0.00000000000000E+00   0.00000000000000E+00   0.00000000000000E+00   0.00000000000000E+00
      0.00000000000000E+00   2.33558475277299E-15
      2.92444444444444E-01
      0.00000000000000E+00   0.00000000000000E+00   0.00000000000000E+00   0.00000000000000E+00  -1.43229670896223E-18
     -7.16240457146732E-16  -7.17672753855695E-16  -6.04949185601255E-15   0.00000000000000E+00   0.00000000000000E+00
      0.00000000000000E+00   0.00000000000000E+00  -3.10030169947782E-05  -2.91819306295156E-24  -3.10030169947782E-05
      1.41076380395777E-15   8.77333333333333E-01   8.77333333333334E-01   0.00000000000000E+00   0.00000000000000E+00
      3.10030169954958E-05   3.56334788231229E-20   3.10030169954959E-05   2.31476559253026E-15   3.00000000000000E+00
      3.00000000000000E+00   0.00000000000000E+00   0.00000000000000E+00   0.00000000000000E+00   0.00000000000000E+00
      0.00000000000000E+00   2.32396245952452E-15
      3.17444444444444E-01
      0.00000000000000E+00   0.00000000000000E+00   0.00000000000000E+00   0.00000000000000E+00  -1.45875774515514E-18
     -7.73090260627186E-16  -7.74549018372341E-16  -6.11055845445811E-15   0.00000000000000E+00   0.00000000000000E+00
      0.00000000000000E+00   0.00000000000000E+00  -3.11402332279081E-05  -2.93280251242921E-24  -3.11402332279081E-05
      1.41076170381088E-15   9.52333333333333E-01   9.52333333333333E-01   0.00000000000000E+00   0.00000000000000E+00
      3.11402332286826E-05   3.64421337079268E-20   3.11402332286826E-05   2.38711976226578E-15   3.00000000000000E+00
      3.00000000000000E+00   0.00000000000000E+00   0.00000000000000E+00   0.00000000000000E+00   0.00000000000000E+00
      0.00000000000000E+00   2.31267698838144E-15
      3.42444444444444E-01
      0.00000000000000E+00   0.00000000000000E+00   0.00000000000000E+00   0.00000000000000E+00  -1.65086707347229E-18
     -8.49873946324343E-16  -8.51524813397815E-16  -6.17164051509895E-15   0.00000000000000E+00   0.00000000000000E+00
      0.00000000000000E+00   0.00000000000000E+00  -3.12665382106408E-05  -2.94625518827533E-24  -3.12665382106408E-05
      1.41075976833978E-15   1.02733333333333E+00   1.02733333333333E+00   0.00000000000000E+00   0.00000000000000E+00
      3.12665382114923E-05   3.67669794069994E-20   3.12665382114923E-05   2.45912063120589E-15   3.00000000000000E+00
      3.00000000000000E+00   0.00000000000000E+00   0.00000000000000E+00   0.00000000000000E+00   0.00000000000000E+00
      0.00000000000000E+00   2.30176011555328E-15
      3.67444444444445E-01
      0.00000000000000E+00   0.00000000000000E+00   0.00000000000000E+00   0.00000000000000E+00   9.72460171741863E-19
     -9.49444686582427E-16  -9.48472226410685E-16  -6.23285064302366E-15   0.00000000000000E+00   0.00000000000000E+00
      0.00000000000000E+00   0.00000000000000E+00  -3.13823537164746E-05  -2.95720746641553E-24  -3.13823537164746E-05
      1.41075799164369E-15   1.10233333333333E+00   1.10233333333333E+00   0.00000000000000E+00   0.00000000000000E+00
      3.13823537174231E-05   3.67635561889779E-20   3.13823537174231E-05   2.53081158137697E-15   3.00000000000000E+00
      3.00000000000000E+00   0.00000000000000E+00   0.00000000000000E+00   0.00000000000000E+00   0.00000000000000E+00
      0.00000000000000E+00   2.29128107000300E-15
      3.92444444444445E-01
      0.00000000000000E+00   0.00000000000000E+00   0.00000000000000E+00   0.00000000000000E+00   2.20323896647716E-19
     -1.07388190577605E-15  -1.07366158187940E-15  -6.29426887546106E-15   0.00000000000000E+00   0.00000000000000E+00
      0.00000000000000E+00   0.00000000000000E+00  -3.14883239250140E-05  -2.97044537545392E-24  -3.14883239250140E-05
      1.41075636433243E-15   1.17733333333333E+00   1.17733333333333E+00   0.00000000000000E+00   0.00000000000000E+00
      3.14883239260876E-05   3.67639310898103E-20   3.14883239260876E-05   2.60222078842591E-15   3.00000000000000E+00
      3.00000000000000E+00   0.00000000000000E+00   0.00000000000000E+00   0.00000000000000E+00   0.00000000000000E+00
      0.00000000000000E+00   2.28129172270273E-15
      4.17444444444445E-01
      0.00000000000000E+00   0.00000000000000E+00   0.00000000000000E+00   0.00000000000000E+00   2.17444419049881E-18
     -1.22298561987030E-15  -1.22081117567980E-15  -6.35588958352124E-15   0.00000000000000E+00   0.00000000000000E+00
      0.00000000000000E+00   0.00000000000000E+00  -3.15854834946939E-05  -2.97196165283094E-24  -3.15854834946939E-05
      1.41075487093223E-15   1.25233333333333E+00   1.25233333333333E+00   0.00000000000000E+00   0.00000000000000E+00
      3.15854834959146E-05   3.67674635166432E-20   3.15854834959147E-05   2.67333005077102E-15   3.00000000000000E+00
      3.00000000000000E+00   0.00000000000000E+00   0.00000000000000E+00   0.00000000000000E+00   0.00000000000000E+00
      0.00000000000000E+00   2.27180466181800E-15
      4.42444444444445E-01
      0.00000000000000E+00   0.00000000000000E+00   0.00000000000000E+00   0.00000000000000E+00  -5.40653762981582E-15
     -1.37637507362594E-15  -6.78291270344177E-15  -6.41755891322215E-15   0.00000000000000E+00   0.00000000000000E+00
      0.00000000000000E+00   0.00000000000000E+00  -3.16752544942588E-05  -2.98306390257106E-24  -3.16752544942588E-05
      1.41075348991651E-15   1.32733333333333E+00   1.32733333333333E+00   0.00000000000000E+00   0.00000000000000E+00
      3.16752545010417E-05   3.67732286442670E-20   3.16752545010417E-05   2.74402599045561E-15   3.00000000000000E+00
      3.00000000000000E+00   0.00000000000000E+00   0.00000000000000E+00   0.00000000000000E+00   0.00000000000000E+00
      0.00000000000000E+00   2.26277943285004E-15
      4.67444444444445E-01
      0.00000000000000E+00   0.00000000000000E+00   0.00000000000000E+00   0.00000000000000E+00   2.38830596698179E-15
     -1.49879654887118E-15   8.89509418110605E-16  -6.47895264887250E-15   0.00000000000000E+00   0.00000000000000E+00
      0.00000000000000E+00   0.00000000000000E+00  -3.17591606070216E-05  -2.99336276191997E-24  -3.17591606070216E-05
      1.41075219809642E-15   1.40233333333333E+00   1.40233333333333E+00   0.00000000000000E+00   0.00000000000000E+00
      3.17591606061321E-05   3.67805957863432E-20   3.17591606061321E-05   2.81406295306389E-15   3.00000000000000E+00
      3.00000000000000E+00   0.00000000000000E+00   0.00000000000000E+00   0.00000000000000E+00   0.00000000000000E+00
      0.00000000000000E+00   2.25413749771219E-15
      4.92444444444445E-01
      0.00000000000000E+00   0.00000000000000E+00   0.00000000000000E+00   0.00000000000000E+00   1.43030296754413E-16
     -1.57702327134013E-15  -1.43399297458571E-15  -6.53957636662531E-15   0.00000000000000E+00   0.00000000000000E+00
      0.00000000000000E+00   0.00000000000000E+00  -3.18388239873600E-05  -3.00008127453274E-24  -3.18388239873600E-05
      1.41075097067647E-15   1.47733333333333E+00   1.47733333333333E+00   0.00000000000000E+00   0.00000000000000E+00
      3.18388239887939E-05   3.67885866007534E-20   3.18388239887940E-05   2.88306446031327E-15   3.00000000000000E+00
      3.00000000000000E+00   0.00000000000000E+00   0.00000000000000E+00   0.00000000000000E+00   0.00000000000000E+00
      0.00000000000000E+00   2.24576093563556E-15
      5.17444444444445E-01
      0.00000000000000E+00   0.00000000000000E+00   0.00000000000000E+00   0.00000000000000E+00   2.69261304957877E-18
     -1.62360022782363E-15  -1.62090761477406E-15  -6.59902139925379E-15   0.00000000000000E+00   0.00000000000000E+00
      0.00000000000000E+00   0.00000000000000E+00  -3.19155679566926E-05  -3.00973508230396E-24  -3.19155679566926E-05
      1.41074978738785E-15   1.55233333333333E+00   1.55233333333333E+00   0.00000000000000E+00   0.00000000000000E+00
      3.19155679583135E-05   3.67967385064315E-20   3.19155679583135E-05   2.95073032748718E-15   3.00000000000000E+00
      3.00000000000000E+00   0.00000000000000E+00   0.00000000000000E+00   0.00000000000000E+00   0.00000000000000E+00
      0.00000000000000E+00   2.23754128437876E-15
      5.42444444444445E-01
      0.00000000000000E+00   0.00000000000000E+00   0.00000000000000E+00   0.00000000000000E+00   2.02153529185839E-18
     -1.65413178313331E-15  -1.65211024784145E-15  -6.65720516507623E-15   0.00000000000000E+00   0.00000000000000E+00
      0.00000000000000E+00   0.00000000000000E+00  -3.19900445154031E-05  -3.01489461056072E-24  -3.19900445154031E-05
      1.41074863826117E-15   1.62733333333333E+00   1.62733333333333E+00   0.00000000000000E+00   0.00000000000000E+00
      3.19900445170551E-05   3.68047364406570E-20   3.19900445170551E-05   3.01702855691711E-15   3.00000000000000E+00
      3.00000000000000E+00   0.00000000000000E+00   0.00000000000000E+00   0.00000000000000E+00   0.00000000000000E+00
      0.00000000000000E+00   2.22942796989793E-15
      5.67444444444445E-01
      0.00000000000000E+00   0.00000000000000E+00   0.00000000000000E+00   0.00000000000000E+00  -1.98968013938989E-18
     -1.67688523077631E-15  -1.67887491091570E-15  -6.71430440027684E-15   0.00000000000000E+00   0.00000000000000E+00
      0.00000000000000E+00   0.00000000000000E+00  -3.20624545532557E-05  -3.02485624453274E-24  -3.20624545532557E-05
      1.41074752026447E-15   1.70233333333333E+00   1.70233333333333E+00   0.00000000000000E+00   0.00000000000000E+00
      3.20624545549345E-05   3.68124443556041E-20   3.20624545549345E-05   3.08214327535920E-15   3.00000000000000E+00
      3.00000000000000E+00   0.00000000000000E+00   0.00000000000000E+00   0.00000000000000E+00   0.00000000000000E+00
      0.00000000000000E+00   2.22141360465318E-15
      5.92444444444445E-01
      0.00000000000000E+00   0.00000000000000E+00   0.00000000000000E+00   0.00000000000000E+00  -2.33858104326805E-18
     -1.69390163848402E-15  -1.69624021952728E-15  -6.77057538260941E-15   0.00000000000000E+00   0.00000000000000E+00
      0.00000000000000E+00   0.00000000000000E+00  -3.21328195380870E-05  -3.02621441342073E-24  -3.21328195380870E-05
      1.41074643312869E-15   1.77733333333333E+00   1.77733333333333E+00   0.00000000000000E+00   0.00000000000000E+00
      3.21328195397832E-05   3.68198259812868E-20   3.21328195397832E-05   3.14632022411476E-15   3.00000000000000E+00
      3.00000000000000E+00   0.00000000000000E+00   0.00000000000000E+00   0.00000000000000E+00   0.00000000000000E+00
      0.00000000000000E+00   2.21350872536596E-15
      6.17444444444445E-01
      0.00000000000000E+00   0.00000000000000E+00   0.00000000000000E+00   0.00000000000000E+00   2.67472160654778E-18
     -1.70595016662231E-15  -1.70327544501576E-15  -6.82623294600107E-15   0.00000000000000E+00   0.00000000000000E+00
      0.00000000000000E+00   0.00000000000000E+00  -3.22011304199443E-05  -3.03581937162127E-24  -3.22011304199443E-05
      1.41074537705428E-15   1.85233333333333E+00   1.85233333333333E+00   0.00000000000000E+00   0.00000000000000E+00
      3.22011304216475E-05   3.68268826856204E-20   3.22011304216476E-05   3.20976099247835E-15   3.00000000000000E+00
      3.00000000000000E+00   0.00000000000000E+00   0.00000000000000E+00   0.00000000000000E+00   0.00000000000000E+00
      0.00000000000000E+00   2.20572657646844E-15
      6.42444444444445E-01
      0.00000000000000E+00   0.00000000000000E+00   0.00000000000000E+00   0.00000000000000E+00   7.75859178210350E-19
     -1.71473701208163E-15  -1.71396115290342E-15  -6.88142284099257E-15   0.00000000000000E+00   0.00000000000000E+00
      0.00000000000000E+00   0.00000000000000E+00  -3.22674694482726E-05  -3.03964105235412E-24  -3.22674694482726E-05
      1.41074435082758E-15   1.92733333333333E+00   1.92733333333333E+00   0.00000000000000E+00   0.00000000000000E+00
      3.22674694499865E-05   3.68336273021792E-20   3.22674694499866E-05   3.27260961190039E-15   3.00000000000000E+00
      3.00000000000000E+00   0.00000000000000E+00   0.00000000000000E+00   0.00000000000000E+00   0.00000000000000E+00
      0.00000000000000E+00   2.19806887826460E-15
      6.67444444444445E-01
      0.00000000000000E+00   0.00000000000000E+00   0.00000000000000E+00   0.00000000000000E+00   3.05192068610982E-18
     -1.72231407371047E-15  -1.71926215302436E-15  -6.93624553749915E-15   0.00000000000000E+00   0.00000000000000E+00
      0.00000000000000E+00   0.00000000000000E+00  -3.23320829921333E-05  -3.04655068819952E-24  -3.23320829921333E-05
      1.41074335068930E-15   2.00233333333333E+00   2.00233333333333E+00   0.00000000000000E+00   0.00000000000000E+00
      3.23320829938525E-05   3.68400750800434E-20   3.23320829938526E-05   3.33498613822627E-15   3.00000000000000E+00
      3.00000000000000E+00   0.00000000000000E+00   0.00000000000000E+00   0.00000000000000E+00   0.00000000000000E+00
      0.00000000000000E+00   2.19051604858359E-15
      6.92444444444445E-01
      0.00000000000000E+00   0.00000000000000E+00   0.00000000000000E+00   0.00000000000000E+00  -1.73883845975946E-18
     -1.73058061838572E-15  -1.73231945684548E-15  -6.99077883317969E-15   0.00000000000000E+00   0.00000000000000E+00
      0.00000000000000E+00   0.00000000000000E+00  -3.23953140213968E-05  -3.05671226875709E-24  -3.23953140213968E-05
      1.41074237137275E-15   2.07733333333333E+00   2.07733333333333E+00   0.00000000000000E+00   0.00000000000000E+00
      3.23953140231291E-05   3.68462392780737E-20   3.23953140231291E-05   3.39700225623185E-15   3.00000000000000E+00
      3.00000000000000E+00   0.00000000000000E+00   0.00000000000000E+00   0.00000000000000E+00   0.00000000000000E+00
      0.00000000000000E+00   2.18303420557509E-15
      7.17444444444445E-01
      0.00000000000000E+00   0.00000000000000E+00   0.00000000000000E+00   0.00000000000000E+00  -2.49937672830664E-18
     -1.74079571445140E-15  -1.74329509117971E-15  -7.04508031640001E-15   0.00000000000000E+00   0.00000000000000E+00
      0.00000000000000E+00   0.00000000000000E+00  -3.24574660044328E-05  -3.05848474626743E-24  -3.24574660044328E-05
      1.41074140821072E-15   2.15233333333333E+00   2.15233333333333E+00   0.00000000000000E+00   0.00000000000000E+00
      3.24574660061760E-05   3.68521363472404E-20   3.24574660061761E-05   3.45874730850946E-15   3.00000000000000E+00
      3.00000000000000E+00   0.00000000000000E+00   0.00000000000000E+00   0.00000000000000E+00   0.00000000000000E+00
      0.00000000000000E+00   2.17559159967982E-15
      7.42444444444445E-01
      0.00000000000000E+00   0.00000000000000E+00   0.00000000000000E+00   0.00000000000000E+00   3.14394719394377E-18
     -1.75307915516025E-15  -1.74993520796631E-15  -7.09918455899283E-15   0.00000000000000E+00   0.00000000000000E+00
      0.00000000000000E+00   0.00000000000000E+00  -3.25187313147838E-05  -3.06600735132310E-24  -3.25187313147838E-05
      1.41074045824762E-15   2.22733333333333E+00   2.22733333333333E+00   0.00000000000000E+00   0.00000000000000E+00
      3.25187313165336E-05   3.68577883541565E-20   3.25187313165337E-05   3.52027591582443E-15   3.00000000000000E+00
      3.00000000000000E+00   0.00000000000000E+00   0.00000000000000E+00   0.00000000000000E+00   0.00000000000000E+00
      0.00000000000000E+00   2.16816818492077E-15
      7.67444444444445E-01
      0.00000000000000E+00   0.00000000000000E+00   0.00000000000000E+00   0.00000000000000E+00  -5.84433869277339E-20
     -1.76677632363247E-15  -1.76683476701939E-15  -7.15310785858131E-15   0.00000000000000E+00   0.00000000000000E+00
      0.00000000000000E+00   0.00000000000000E+00  -3.25792142185662E-05  -3.07212819038434E-24  -3.25792142185662E-05
      1.41073951988809E-15   2.30233333333333E+00   2.30233333333333E+00   0.00000000000000E+00   0.00000000000000E+00
      3.25792142203330E-05   3.68632190497601E-20   3.25792142203330E-05   3.58161462078289E-15   3.00000000000000E+00
      3.00000000000000E+00   0.00000000000000E+00   0.00000000000000E+00   0.00000000000000E+00   0.00000000000000E+00
      0.00000000000000E+00   2.16075371791033E-15
      7.92444444444445E-01
      0.00000000000000E+00   0.00000000000000E+00   0.00000000000000E+00   0.00000000000000E+00  -1.32509980536917E-18
     -1.78097536954886E-15  -1.78230046935423E-15  -7.20685505765248E-15   0.00000000000000E+00   0.00000000000000E+00
      0.00000000000000E+00   0.00000000000000E+00  -3.26389710113684E-05  -3.07741829362920E-24  -3.26389710113684E-05
      1.41073859227777E-15   2.37733333333333E+00   2.37733333333333E+00   0.00000000000000E+00   0.00000000000000E+00
      3.26389710131506E-05   3.68684490313631E-20   3.26389710131507E-05   3.64277297125974E-15   3.00000000000000E+00
      3.00000000000000E+00   0.00000000000000E+00   0.00000000000000E+00   0.00000000000000E+00   0.00000000000000E+00
      0.00000000000000E+00   2.15334349411497E-15
      8.17444444444445E-01
      0.00000000000000E+00   0.00000000000000E+00   0.00000000000000E+00   0.00000000000000E+00   3.48248413529486E-18
     -1.79467010560654E-15  -1.79118762147124E-15  -7.26042509257720E-15   0.00000000000000E+00   0.00000000000000E+00
      0.00000000000000E+00   0.00000000000000E+00  -3.26980364491827E-05  -3.08499724100986E-24  -3.26980364491827E-05
      1.41073767489465E-15   2.45233333333333E+00   2.45233333333333E+00   0.00000000000000E+00   0.00000000000000E+00
      3.26980364509739E-05   3.68734389665482E-20   3.26980364509739E-05   3.70375195515188E-15   3.00000000000000E+00
      3.00000000000000E+00   0.00000000000000E+00   0.00000000000000E+00   0.00000000000000E+00   0.00000000000000E+00
      0.00000000000000E+00   2.14593546253067E-15
      8.42444444444445E-01
      0.00000000000000E+00   0.00000000000000E+00   0.00000000000000E+00   0.00000000000000E+00   3.39124961178973E-19
     -1.80829552310887E-15  -1.80795639814769E-15  -7.31381493612753E-15   0.00000000000000E+00   0.00000000000000E+00
      0.00000000000000E+00   0.00000000000000E+00  -3.27564370971240E-05  -3.08710226920133E-24  -3.27564370971240E-05
      1.41073676734315E-15   2.52733333333333E+00   2.52733333333333E+00   0.00000000000000E+00   0.00000000000000E+00
      3.27564370989319E-05   3.68783399561399E-20   3.27564370989319E-05   3.76454943752822E-15   3.00000000000000E+00
      3.00000000000000E+00   0.00000000000000E+00   0.00000000000000E+00   0.00000000000000E+00   0.00000000000000E+00
      0.00000000000000E+00   2.13852873125617E-15
      8.67444444444445E-01
      0.00000000000000E+00   0.00000000000000E+00   0.00000000000000E+00   0.00000000000000E+00  -2.27189466920862E-18