DF-ISE text

Info {
  version   = 1.0
  type      = xyplot
  datasets  = [
    "time"
    "substrate OuterVoltage" "substrate InnerVoltage" "substrate QuasiFermiPotential" "substrate DisplacementCurrent" "substrate eCurrent"
    "substrate hCurrent" "substrate TotalCurrent" "substrate Charge" "source OuterVoltage" "source InnerVoltage"
    "source QuasiFermiPotential" "source DisplacementCurrent" "source eCurrent" "source hCurrent" "source TotalCurrent"
    "source Charge" "drain OuterVoltage" "drain InnerVoltage" "drain QuasiFermiPotential" "drain DisplacementCurrent"
    "drain eCurrent" "drain hCurrent" "drain TotalCurrent" "drain Charge" "gate OuterVoltage"
    "gate InnerVoltage" "gate QuasiFermiPotential" "gate DisplacementCurrent" "gate eCurrent" "gate hCurrent"
    "gate TotalCurrent" "gate Charge" ]
  functions = [
    Time
    OuterVoltage InnerVoltage QuasiFermiPotential DisplacementCurrent eCurrent
    hCurrent TotalCurrent Charge OuterVoltage InnerVoltage
    QuasiFermiPotential DisplacementCurrent eCurrent hCurrent TotalCurrent
    Charge OuterVoltage InnerVoltage QuasiFermiPotential DisplacementCurrent
    eCurrent hCurrent TotalCurrent Charge OuterVoltage
    InnerVoltage QuasiFermiPotential DisplacementCurrent eCurrent hCurrent
    TotalCurrent Charge ]
}

Data {
      0.00000000000000E+00
      0.00000000000000E+00   0.00000000000000E+00   0.00000000000000E+00   0.00000000000000E+00   2.00885931882611E-19
     -2.10341632213671E-27   2.00885929779195E-19  -4.03839072566067E-15   0.00000000000000E+00   0.00000000000000E+00
      0.00000000000000E+00   0.00000000000000E+00  -1.00988725671594E-19  -6.15762837746732E-28  -1.00988726287357E-19
      1.54317256379195E-15   0.00000000000000E+00   0.00000000000000E+00   0.00000000000000E+00   0.00000000000000E+00
     -9.98972062112967E-20   2.71945901124576E-27  -9.98972034918377E-20   1.54317256379195E-15   1.00000000000000E+00
      1.00000000000000E+00   0.00000000000000E+00   0.00000000000000E+00   0.00000000000000E+00   0.00000000000000E+00
      0.00000000000000E+00   9.52045598076771E-16
      1.00000000000000E-02
      0.00000000000000E+00   0.00000000000000E+00   0.00000000000000E+00   0.00000000000000E+00   8.27725845637483E-17
     -3.05089004304811E-17   5.22636841332673E-17  -4.07233957987069E-15   0.00000000000000E+00   0.00000000000000E+00
      0.00000000000000E+00   0.00000000000000E+00  -7.57685514124487E-16  -1.66771596386757E-27  -7.57685514126155E-16
      1.54317256378566E-15   3.00000000000000E-02   3.00000000000000E-02   0.00000000000000E+00   0.00000000000000E+00
      7.05397090578098E-16   2.47394147890728E-20   7.05421829992887E-16   1.58046982370038E-15   1.00000000000000E+00
      1.00000000000000E+00   0.00000000000000E+00   0.00000000000000E+00   0.00000000000000E+00   0.00000000000000E+00
      0.00000000000000E+00   9.48697192384645E-16
      2.33333333333333E-02
      0.00000000000000E+00   0.00000000000000E+00   0.00000000000000E+00   0.00000000000000E+00  -1.08741878021658E-18
     -6.23151079358459E-17  -6.34025267160625E-17  -4.11691666224494E-15   0.00000000000000E+00   0.00000000000000E+00
      0.00000000000000E+00   0.00000000000000E+00  -9.93671704411574E-16  -8.34060442201038E-28  -9.93671704412408E-16
      1.54317256377749E-15   7.00000000000000E-02   7.00000000000000E-02   0.00000000000000E+00   0.00000000000000E+00
      1.05704210328758E-15   3.21278408901686E-20   1.05707423112847E-15   1.62940676247599E-15   1.00000000000000E+00
      1.00000000000000E+00   0.00000000000000E+00   0.00000000000000E+00   0.00000000000000E+00   0.00000000000000E+00
      0.00000000000000E+00   9.44337335991454E-16
      4.24444444444445E-02
      0.00000000000000E+00   0.00000000000000E+00   0.00000000000000E+00   0.00000000000000E+00  -1.25325082759593E-16
     -1.11584210353488E-16  -2.36909293113081E-16  -4.17938944213292E-15   0.00000000000000E+00   0.00000000000000E+00
      0.00000000000000E+00   0.00000000000000E+00  -1.02831625694917E-15  -2.69295426185475E-27  -1.02831625695186E-15
      1.54317256376610E-15   1.27333333333333E-01   1.27333333333333E-01   0.00000000000000E+00   0.00000000000000E+00
      1.26520329755913E-15   2.22525058135077E-20   1.26522555006494E-15   1.69793999650479E-15   1.00000000000000E+00
      1.00000000000000E+00   0.00000000000000E+00   0.00000000000000E+00   0.00000000000000E+00   0.00000000000000E+00
      0.00000000000000E+00   9.38276881862035E-16
      6.74444444444444E-02
      0.00000000000000E+00   0.00000000000000E+00   0.00000000000000E+00   0.00000000000000E+00  -3.46710117175506E-19
     -2.17696829787981E-16  -2.18043539905156E-16  -4.25852582089216E-15   0.00000000000000E+00   0.00000000000000E+00
      0.00000000000000E+00   0.00000000000000E+00  -1.03204605288642E-15   8.44746263995898E-27  -1.03204605287797E-15
      1.54317256375154E-15   2.02333333333333E-01   2.02333333333333E-01   0.00000000000000E+00   0.00000000000000E+00
      1.25008312616817E-15   6.46661495783219E-21   1.25008959278313E-15   1.78473750338613E-15   1.00000000000000E+00
      1.00000000000000E+00   0.00000000000000E+00   0.00000000000000E+00   0.00000000000000E+00   0.00000000000000E+00
      0.00000000000000E+00   9.30615753754490E-16
      9.24444444444444E-02
      0.00000000000000E+00   0.00000000000000E+00   0.00000000000000E+00   0.00000000000000E+00  -2.47981437548785E-19
     -3.50427834758178E-16  -3.50675816195726E-16  -4.33493072795513E-15   0.00000000000000E+00   0.00000000000000E+00
      0.00000000000000E+00   0.00000000000000E+00  -1.03707222771962E-15  -2.43533866470569E-27  -1.03707222772205E-15
      1.54317256373712E-15   2.77333333333333E-01   2.77333333333333E-01   0.00000000000000E+00   0.00000000000000E+00
      1.38771218585485E-15   3.58580629273384E-20   1.38774804391778E-15   1.86860802793560E-15   1.00000000000000E+00
      1.00000000000000E+00   0.00000000000000E+00   0.00000000000000E+00   0.00000000000000E+00   0.00000000000000E+00
      0.00000000000000E+00   9.23150136282396E-16
      1.17444444444444E-01
      0.00000000000000E+00   0.00000000000000E+00   0.00000000000000E+00   0.00000000000000E+00   1.07783404460041E-19
     -4.38059448751569E-16  -4.37951665347109E-16  -4.40918432408627E-15   0.00000000000000E+00   0.00000000000000E+00
      0.00000000000000E+00   0.00000000000000E+00  -1.04194755147226E-15   3.07693242185342E-27  -1.04194755146918E-15
      1.54317256372266E-15   3.52333333333333E-01   3.52333333333333E-01   0.00000000000000E+00   0.00000000000000E+00
      1.47986290369336E-15   3.63131229303670E-20   1.47989921681629E-15   1.95021612622949E-15   1.00000000000000E+00
      1.00000000000000E+00   0.00000000000000E+00   0.00000000000000E+00   0.00000000000000E+00   0.00000000000000E+00
      0.00000000000000E+00   9.15795634134118E-16
      1.42444444444444E-01
      0.00000000000000E+00   0.00000000000000E+00   0.00000000000000E+00   0.00000000000000E+00   1.00834756264091E-19
     -4.84361026743936E-16  -4.84260191987672E-16  -4.48194622426096E-15   0.00000000000000E+00   0.00000000000000E+00
      0.00000000000000E+00   0.00000000000000E+00  -1.04629355168787E-15   5.88536806599807E-27  -1.04629355168198E-15
      1.54317256370805E-15   4.27333333333333E-01   4.27333333333333E-01   0.00000000000000E+00   0.00000000000000E+00
      1.53051687186552E-15   3.68718041375131E-20   1.53055374366965E-15   2.03025797319346E-15   1.00000000000000E+00
      1.00000000000000E+00   0.00000000000000E+00   0.00000000000000E+00   0.00000000000000E+00   0.00000000000000E+00
      0.00000000000000E+00   9.08515687359452E-16
      1.67444444444444E-01
      0.00000000000000E+00   0.00000000000000E+00   0.00000000000000E+00   0.00000000000000E+00  -1.35213787730625E-19
     -5.20451840406512E-16  -5.20587054194243E-16  -4.55369005323761E-15   0.00000000000000E+00   0.00000000000000E+00
      0.00000000000000E+00   0.00000000000000E+00  -1.05028725937142E-15   7.17612408963191E-27  -1.05028725936425E-15
      1.54317256369327E-15   5.02333333333333E-01   5.02333333333333E-01   0.00000000000000E+00   0.00000000000000E+00
      1.57083745801935E-15   3.68555391411361E-20   1.57087431355849E-15   2.10921376232017E-15   1.00000000000000E+00
      1.00000000000000E+00   0.00000000000000E+00   0.00000000000000E+00   0.00000000000000E+00   0.00000000000000E+00
      0.00000000000000E+00   9.01303727224173E-16
      1.92444444444444E-01
      0.00000000000000E+00   0.00000000000000E+00   0.00000000000000E+00   0.00000000000000E+00   1.21096961192363E-19
     -5.52775394733686E-16  -5.52654297772494E-16  -4.62467682691462E-15   0.00000000000000E+00   0.00000000000000E+00
      0.00000000000000E+00   0.00000000000000E+00  -1.05463970444484E-15   4.44074627754913E-27  -1.05463970444040E-15
      1.54317256367835E-15   5.77333333333333E-01   5.77333333333333E-01   0.00000000000000E+00   0.00000000000000E+00
      1.60725716425722E-15   3.68379556701269E-20   1.60729400221289E-15   2.18733742375610E-15   1.00000000000000E+00
      1.00000000000000E+00   0.00000000000000E+00   0.00000000000000E+00   0.00000000000000E+00   0.00000000000000E+00
      0.00000000000000E+00   8.94166839480169E-16
      2.17444444444444E-01
      0.00000000000000E+00   0.00000000000000E+00   0.00000000000000E+00   0.00000000000000E+00  -2.41586594712035E-19
     -5.83760221632668E-16  -5.84001808227380E-16  -4.69502533696412E-15   0.00000000000000E+00   0.00000000000000E+00
      0.00000000000000E+00   0.00000000000000E+00  -1.05823571852112E-15  -5.72355745109512E-27  -1.05823571852684E-15
      1.54317256366331E-15   6.52333333333333E-01   6.52333333333333E-01   0.00000000000000E+00   0.00000000000000E+00
      1.64220070757966E-15   3.68191745536049E-20   1.64223752675422E-15   2.26473613017322E-15   1.00000000000000E+00
      1.00000000000000E+00   0.00000000000000E+00   0.00000000000000E+00   0.00000000000000E+00   0.00000000000000E+00
      0.00000000000000E+00   8.87116643127576E-16
      2.42444444444444E-01
      0.00000000000000E+00   0.00000000000000E+00   0.00000000000000E+00   0.00000000000000E+00   5.21858742251713E-19
     -6.16710173524161E-16  -6.16188314781910E-16  -4.76477727194634E-15   0.00000000000000E+00   0.00000000000000E+00
      0.00000000000000E+00   0.00000000000000E+00  -1.06282365110788E-15  -3.03595086788160E-27  -1.06282365111091E-15
      1.54317256364821E-15   7.27333333333333E-01   7.27333333333333E-01   0.00000000000000E+00   0.00000000000000E+00
      1.67897516581979E-15   3.68000730311777E-20   1.67901196589282E-15   2.34144268866967E-15   1.00000000000000E+00
      1.00000000000000E+00   0.00000000000000E+00   0.00000000000000E+00   0.00000000000000E+00   0.00000000000000E+00
      0.00000000000000E+00   8.80162019628461E-16
      2.67444444444444E-01
      0.00000000000000E+00   0.00000000000000E+00   0.00000000000000E+00   0.00000000000000E+00   3.08984255552259E-19
     -6.53652922985918E-16  -6.53343938730365E-16  -4.83394120807369E-15   0.00000000000000E+00   0.00000000000000E+00
      0.00000000000000E+00   0.00000000000000E+00  -1.06630771228701E-15   3.40915208487375E-27  -1.06630771228360E-15
      1.54317256363305E-15   8.02333333333333E-01   8.02333333333333E-01   0.00000000000000E+00   0.00000000000000E+00
      1.71961486942533E-15   3.67815886341748E-20   1.71965165101397E-15   2.41746748274416E-15   1.00000000000000E+00
      1.00000000000000E+00   0.00000000000000E+00   0.00000000000000E+00   0.00000000000000E+00   0.00000000000000E+00
      0.00000000000000E+00   8.73301161696490E-16
      2.92444444444444E-01
      0.00000000000000E+00   0.00000000000000E+00   0.00000000000000E+00   0.00000000000000E+00  -1.20439638319318E-19
     -6.99679231629608E-16  -6.99799671267927E-16  -4.90251747159028E-15   0.00000000000000E+00   0.00000000000000E+00
      0.00000000000000E+00   0.00000000000000E+00  -1.06946549231557E-15  -5.58920947183571E-27  -1.06946549232116E-15
      1.54317256361778E-15   8.77333333333333E-01   8.77333333333334E-01   0.00000000000000E+00   0.00000000000000E+00
      1.76922839856960E-15   3.67650194894147E-20   1.76926516358909E-15   2.49282761152927E-15   1.00000000000000E+00
      1.00000000000000E+00   0.00000000000000E+00   0.00000000000000E+00   0.00000000000000E+00   0.00000000000000E+00
      0.00000000000000E+00   8.66517296443231E-16
      3.17444444444444E-01
      0.00000000000000E+00   0.00000000000000E+00   0.00000000000000E+00   0.00000000000000E+00  -3.44518808097589E-19
     -7.60466839145476E-16  -7.60811357953574E-16  -4.97050374146822E-15   0.00000000000000E+00   0.00000000000000E+00
      0.00000000000000E+00   0.00000000000000E+00  -1.07274321406002E-15  -5.51799257850054E-27  -1.07274321406553E-15
      1.54317256360235E-15   9.52333333333333E-01   9.52333333333333E-01   0.00000000000000E+00   0.00000000000000E+00
      1.83351781979809E-15   3.67522210163777E-20   1.83355457201911E-15   2.56754701319633E-15   1.00000000000000E+00
      1.00000000000000E+00   0.00000000000000E+00   0.00000000000000E+00   0.00000000000000E+00   0.00000000000000E+00
      0.00000000000000E+00   8.59784164669541E-16
      3.42444444444444E-01
      0.00000000000000E+00   0.00000000000000E+00   0.00000000000000E+00   0.00000000000000E+00  -5.28661811334772E-20
     -8.40170630106793E-16  -8.40223496287927E-16  -5.03788621702154E-15   0.00000000000000E+00   0.00000000000000E+00
      0.00000000000000E+00   0.00000000000000E+00  -1.07647684900263E-15  -6.49415547011124E-27  -1.07647684900913E-15
      1.54317256358666E-15   1.02733333333333E+00   1.02733333333333E+00   0.00000000000000E+00   0.00000000000000E+00
      1.91666360101688E-15   3.67442801742459E-20   1.91670034529706E-15   2.64163676162479E-15   1.00000000000000E+00
      1.00000000000000E+00   0.00000000000000E+00   0.00000000000000E+00   0.00000000000000E+00   0.00000000000000E+00
      0.00000000000000E+00   8.53076891810093E-16
      3.67444444444445E-01
      0.00000000000000E+00   0.00000000000000E+00   0.00000000000000E+00   0.00000000000000E+00   1.52097151414479E-19
     -9.40864634104488E-16  -9.40712536953073E-16  -5.10462546793174E-15   0.00000000000000E+00   0.00000000000000E+00
      0.00000000000000E+00   0.00000000000000E+00  -1.08005540241421E-15  -1.03885760105598E-26  -1.08005540242460E-15
      1.54317256357067E-15   1.10233333333333E+00   1.10233333333333E+00   0.00000000000000E+00   0.00000000000000E+00
      2.02073119855953E-15   3.67408181359853E-20   2.02076793937767E-15   2.71507466819634E-15   1.00000000000000E+00
      1.00000000000000E+00   0.00000000000000E+00   0.00000000000000E+00   0.00000000000000E+00   0.00000000000000E+00
      0.00000000000000E+00   8.46378236164734E-16
      3.92444444444445E-01
      0.00000000000000E+00   0.00000000000000E+00   0.00000000000000E+00   0.00000000000000E+00  -5.92666646041761E-19
     -1.06593990995356E-15  -1.06653257659960E-15  -5.17064319337134E-15   0.00000000000000E+00   0.00000000000000E+00
      0.00000000000000E+00   0.00000000000000E+00  -1.08263782055667E-15  -1.65833671930329E-27  -1.08263782055833E-15
      1.54317256355434E-15   1.17733333333333E+00   1.17733333333333E+00   0.00000000000000E+00   0.00000000000000E+00
      2.14913365604806E-15   3.67411098686960E-20   2.14917039715793E-15   2.78779220712629E-15   1.00000000000000E+00
      1.00000000000000E+00   0.00000000000000E+00   0.00000000000000E+00   0.00000000000000E+00   0.00000000000000E+00
      0.00000000000000E+00   8.39678422690715E-16
      4.17444444444445E-01
      0.00000000000000E+00   0.00000000000000E+00   0.00000000000000E+00   0.00000000000000E+00  -1.25096662174264E-19
     -1.21588689261936E-15  -1.21601198928153E-15  -5.23581368173748E-15   0.00000000000000E+00   0.00000000000000E+00
      0.00000000000000E+00   0.00000000000000E+00  -1.08643611354813E-15   5.27036644863718E-27  -1.08643611354286E-15
      1.54317256353764E-15   1.25233333333333E+00   1.25233333333333E+00   0.00000000000000E+00   0.00000000000000E+00
      2.30241135825836E-15   3.67445660342115E-20   2.30244810282439E-15   2.85966853293993E-15   1.00000000000000E+00
      1.00000000000000E+00   0.00000000000000E+00   0.00000000000000E+00   0.00000000000000E+00   0.00000000000000E+00
      0.00000000000000E+00   8.32972585259902E-16
      4.42444444444445E-01
      0.00000000000000E+00   0.00000000000000E+00   0.00000000000000E+00   0.00000000000000E+00   6.50323658531389E-19
     -1.36939392744076E-15  -1.36874360378223E-15  -5.29996446666643E-15   0.00000000000000E+00   0.00000000000000E+00
      0.00000000000000E+00   0.00000000000000E+00  -1.09047364669299E-15  -1.58841028603694E-26  -1.09047364670888E-15
      1.54317256352060E-15   1.32733333333333E+00   1.32733333333333E+00   0.00000000000000E+00   0.00000000000000E+00
      2.45918050014912E-15   3.67503419884600E-20   2.45921725049110E-15   2.93053337082639E-15   1.00000000000000E+00
      1.00000000000000E+00   0.00000000000000E+00   0.00000000000000E+00   0.00000000000000E+00   0.00000000000000E+00
      0.00000000000000E+00   8.26258532319429E-16
      4.67444444444445E-01
      0.00000000000000E+00   0.00000000000000E+00   0.00000000000000E+00   0.00000000000000E+00  -6.19207222465941E-19
     -1.49103472835568E-15  -1.49165393557815E-15  -5.36289593163644E-15   0.00000000000000E+00   0.00000000000000E+00
      0.00000000000000E+00   0.00000000000000E+00  -1.09245032369454E-15   5.07777684949810E-27  -1.09245032368947E-15
      1.54317256350320E-15   1.40233333333333E+00   1.40233333333333E+00   0.00000000000000E+00   0.00000000000000E+00
      2.58406750170104E-15   3.67575665715814E-20   2.58410425926761E-15   3.00018797721629E-15   1.00000000000000E+00
      1.00000000000000E+00   0.00000000000000E+00   0.00000000000000E+00   0.00000000000000E+00   0.00000000000000E+00
      0.00000000000000E+00   8.19535390916940E-16
      4.92444444444445E-01
      0.00000000000000E+00   0.00000000000000E+00   0.00000000000000E+00   0.00000000000000E+00   4.77991768824014E-20
     -1.56886071318066E-15  -1.56881291400378E-15  -5.42443477234860E-15   0.00000000000000E+00   0.00000000000000E+00
      0.00000000000000E+00   0.00000000000000E+00  -1.09632366796938E-15   1.14974759310861E-26  -1.09632366795788E-15
      1.54317256348546E-15   1.47733333333333E+00   1.47733333333333E+00   0.00000000000000E+00   0.00000000000000E+00
      2.66509981646917E-15   3.67654924922021E-20   2.66513658196166E-15   3.06845930623753E-15   1.00000000000000E+00
      1.00000000000000E+00   0.00000000000000E+00   0.00000000000000E+00   0.00000000000000E+00   0.00000000000000E+00
      0.00000000000000E+00   8.12802902625604E-16
      5.17444444444445E-01
      0.00000000000000E+00   0.00000000000000E+00   0.00000000000000E+00   0.00000000000000E+00  -3.43643476594719E-20
     -1.61635984384811E-15  -1.61639420819577E-15  -5.48451932303152E-15   0.00000000000000E+00   0.00000000000000E+00
      0.00000000000000E+00   0.00000000000000E+00  -1.09941536893502E-15  -3.32046615990813E-27  -1.09941536893834E-15
      1.54317256346737E-15   1.55233333333333E+00   1.55233333333333E+00   0.00000000000000E+00   0.00000000000000E+00
      2.71577280355291E-15   3.67735812016993E-20   2.71580957713411E-15   3.13528566964371E-15   1.00000000000000E+00
      1.00000000000000E+00   0.00000000000000E+00   0.00000000000000E+00   0.00000000000000E+00   0.00000000000000E+00
      0.00000000000000E+00   8.06061089920437E-16
      5.42444444444445E-01
      0.00000000000000E+00   0.00000000000000E+00   0.00000000000000E+00   0.00000000000000E+00  -4.46847074316410E-19
     -1.64886574517790E-15  -1.64931259225222E-15  -5.54326266159610E-15   0.00000000000000E+00   0.00000000000000E+00
      0.00000000000000E+00   0.00000000000000E+00  -1.10214636493286E-15   1.62862385790921E-26  -1.10214636491657E-15
      1.54317256344890E-15   1.62733333333333E+00   1.62733333333333E+00   0.00000000000000E+00   0.00000000000000E+00
      2.75142217565001E-15   3.67815187782572E-20   2.75145895716879E-15   3.20077998739692E-15   1.00000000000000E+00
      1.00000000000000E+00   0.00000000000000E+00   0.00000000000000E+00   0.00000000000000E+00   0.00000000000000E+00
      0.00000000000000E+00   7.99310110750288E-16
      5.67444444444445E-01
      0.00000000000000E+00   0.00000000000000E+00   0.00000000000000E+00   0.00000000000000E+00   1.03039991762037E-19
     -1.67415553400705E-15  -1.67405249401529E-15  -5.60092033238622E-15   0.00000000000000E+00   0.00000000000000E+00
      0.00000000000000E+00   0.00000000000000E+00  -1.10581060958440E-15  -3.31952055072362E-27  -1.10581060958772E-15
      1.54317256343006E-15   1.70233333333333E+00   1.70233333333333E+00   0.00000000000000E+00   0.00000000000000E+00
      2.77982631443410E-15   3.67891689052315E-20   2.77986310360301E-15   3.26519756725521E-15   1.00000000000000E+00
      1.00000000000000E+00   0.00000000000000E+00   0.00000000000000E+00   0.00000000000000E+00   0.00000000000000E+00
      0.00000000000000E+00   7.92550201700925E-16
      5.92444444444445E-01
      0.00000000000000E+00   0.00000000000000E+00   0.00000000000000E+00   0.00000000000000E+00  -2.88183573055142E-19
     -1.69429173935259E-15  -1.69457992292565E-15  -5.65778053154338E-15   0.00000000000000E+00   0.00000000000000E+00
      0.00000000000000E+00   0.00000000000000E+00  -1.10850527315017E-15   1.22564008066687E-27  -1.10850527314895E-15
      1.54317256341084E-15   1.77733333333333E+00   1.77733333333333E+00   0.00000000000000E+00   0.00000000000000E+00
      2.80304839958087E-15   3.67964937215145E-20   2.80308519607460E-15   3.32882630913895E-15   1.00000000000000E+00
      1.00000000000000E+00   0.00000000000000E+00   0.00000000000000E+00   0.00000000000000E+00   0.00000000000000E+00
      0.00000000000000E+00   7.85781658993584E-16
      6.17444444444445E-01
      0.00000000000000E+00   0.00000000000000E+00   0.00000000000000E+00   0.00000000000000E+00  -7.49350719924604E-20
     -1.71027763403750E-15  -1.71035256910950E-15  -5.71407517364605E-15   0.00000000000000E+00   0.00000000000000E+00
      0.00000000000000E+00   0.00000000000000E+00  -1.11177686250150E-15  -6.56693455364153E-27  -1.11177686250806E-15
      1.54317256339124E-15   1.85233333333333E+00   1.85233333333333E+00   0.00000000000000E+00   0.00000000000000E+00
      2.82209262812271E-15   3.68034948497320E-20   2.82212943161756E-15   3.39189777713293E-15   1.00000000000000E+00
      1.00000000000000E+00   0.00000000000000E+00   0.00000000000000E+00   0.00000000000000E+00   0.00000000000000E+00
      0.00000000000000E+00   7.79004833121860E-16
      6.42444444444445E-01
      0.00000000000000E+00   0.00000000000000E+00   0.00000000000000E+00   0.00000000000000E+00  -1.93284811428722E-19
     -1.72374567854523E-15  -1.72393896335665E-15  -5.76995817120108E-15   0.00000000000000E+00   0.00000000000000E+00
      0.00000000000000E+00   0.00000000000000E+00  -1.11469007136240E-15   2.74598048684314E-29  -1.11469007136237E-15
      1.54317256337126E-15   1.92733333333333E+00   1.92733333333333E+00   0.00000000000000E+00   0.00000000000000E+00
      2.83859222453334E-15   3.68101856883206E-20   2.83862903471903E-15   3.45456548313011E-15   1.00000000000000E+00
      1.00000000000000E+00   0.00000000000000E+00   0.00000000000000E+00   0.00000000000000E+00   0.00000000000000E+00
      0.00000000000000E+00   7.72220124699705E-16
      6.67444444444445E-01
      0.00000000000000E+00   0.00000000000000E+00   0.00000000000000E+00   0.00000000000000E+00   1.37644962905920E-19
     -1.73627669540057E-15  -1.73613905043766E-15  -5.82552324859625E-15   0.00000000000000E+00   0.00000000000000E+00
      0.00000000000000E+00   0.00000000000000E+00  -1.11802645222909E-15   3.34854225176844E-27  -1.11802645222574E-15
      1.54317256335088E-15   2.00233333333333E+00   2.00233333333333E+00   0.00000000000000E+00   0.00000000000000E+00
      2.85412868608140E-15   3.68165820064800E-20   2.85416550266341E-15   3.51692271380946E-15   1.00000000000000E+00
      1.00000000000000E+00   0.00000000000000E+00   0.00000000000000E+00   0.00000000000000E+00   0.00000000000000E+00
      0.00000000000000E+00   7.65427971435899E-16
      6.92444444444445E-01
      0.00000000000000E+00   0.00000000000000E+00   0.00000000000000E+00   0.00000000000000E+00  -4.29968667997366E-19
     -1.74913468214445E-15  -1.74956465081245E-15  -5.88082678304792E-15   0.00000000000000E+00   0.00000000000000E+00
      0.00000000000000E+00   0.00000000000000E+00  -1.12043871598970E-15   8.44503630715168E-27  -1.12043871598126E-15
      1.54317256332987E-15   2.07733333333333E+00   2.07733333333333E+00   0.00000000000000E+00   0.00000000000000E+00
      2.86996655838263E-15   3.68084110750536E-20   2.87000336679370E-15   3.57902540172618E-15   1.00000000000000E+00
      1.00000000000000E+00   0.00000000000000E+00   0.00000000000000E+00   0.00000000000000E+00   0.00000000000000E+00
      0.00000000000000E+00   7.58628817991854E-16
      7.17444444444445E-01
      0.00000000000000E+00   0.00000000000000E+00   0.00000000000000E+00   0.00000000000000E+00   1.72117696928726E-19
     -1.76302985229338E-15  -1.76285773459645E-15  -5.93590303380649E-15   0.00000000000000E+00   0.00000000000000E+00
      0.00000000000000E+00   0.00000000000000E+00  -1.12399599527416E-15  -6.06001977616525E-28  -1.12399599527477E-15
      1.54317256330885E-15   2.15233333333333E+00   2.15233333333333E+00   0.00000000000000E+00   0.00000000000000E+00
      2.88681697760004E-15   3.67522711759373E-20   2.88685372987121E-15   3.64090740191487E-15   1.00000000000000E+00
      1.00000000000000E+00   0.00000000000000E+00   0.00000000000000E+00   0.00000000000000E+00   0.00000000000000E+00
      0.00000000000000E+00   7.51823068582763E-16
      7.42444444444445E-01
      0.00000000000000E+00   0.00000000000000E+00   0.00000000000000E+00   0.00000000000000E+00  -6.26117703563347E-19
     -1.77792399941083E-15  -1.77855011711439E-15  -5.99077238949006E-15   0.00000000000000E+00   0.00000000000000E+00
      0.00000000000000E+00   0.00000000000000E+00  -1.12612872521339E-15   5.65908107326342E-27  -1.12612872520773E-15
      1.54317256328735E-15   2.22733333333333E+00   2.22733333333333E+00   0.00000000000000E+00   0.00000000000000E+00
      2.90464206160956E-15   3.67807125531960E-20   2.90467884232212E-15   3.70258879165984E-15   1.00000000000000E+00
      1.00000000000000E+00   0.00000000000000E+00   0.00000000000000E+00   0.00000000000000E+00   0.00000000000000E+00
      0.00000000000000E+00   7.45011034542863E-16
      7.67444444444445E-01
      0.00000000000000E+00   0.00000000000000E+00   0.00000000000000E+00   0.00000000000000E+00  -1.04862684113426E-19
     -1.79318208225696E-15  -1.79328694494107E-15  -6.04544589111124E-15   0.00000000000000E+00   0.00000000000000E+00
      0.00000000000000E+00   0.00000000000000E+00  -1.12955760559383E-15   4.92531794221755E-28  -1.12955760559334E-15
      1.54317256326539E-15   2.30233333333333E+00   2.30233333333333E+00   0.00000000000000E+00   0.00000000000000E+00
      2.92280772212724E-15   3.68284071708131E-20   2.92284455053441E-15   3.76408043059784E-15   1.00000000000000E+00
      1.00000000000000E+00   0.00000000000000E+00   0.00000000000000E+00   0.00000000000000E+00   0.00000000000000E+00
      0.00000000000000E+00   7.38192897247995E-16
      7.92444444444445E-01
      0.00000000000000E+00   0.00000000000000E+00   0.00000000000000E+00   0.00000000000000E+00  -2.24304083291624E-19
     -1.80791468394674E-15  -1.80813898803003E-15  -6.09992825017325E-15   0.00000000000000E+00   0.00000000000000E+00
      0.00000000000000E+00   0.00000000000000E+00  -1.13232340250583E-15   6.12590079694179E-27  -1.13232340249970E-15
      1.54317256324300E-15   2.37733333333333E+00   2.37733333333333E+00   0.00000000000000E+00   0.00000000000000E+00
      2.94042554659309E-15   3.68439366469344E-20   2.94046239052973E-15   3.82538698355007E-15   1.00000000000000E+00
      1.00000000000000E+00   0.00000000000000E+00   0.00000000000000E+00   0.00000000000000E+00   0.00000000000000E+00
      0.00000000000000E+00   7.31368703380174E-16
      8.17444444444445E-01
      0.00000000000000E+00   0.00000000000000E+00   0.00000000000000E+00   0.00000000000000E+00   1.14025714935525E-19
     -1.82153330873267E-15  -1.82141928301773E-15  -6.15422039928294E-15   0.00000000000000E+00   0.00000000000000E+00
      0.00000000000000E+00   0.00000000000000E+00  -1.13552561374430E-15   1.55800317868108E-26  -1.13552561372872E-15
      1.54317256322021E-15   2.45233333333333E+00   2.45233333333333E+00   0.00000000000000E+00   0.00000000000000E+00
      2.95690804710831E-15   3.68496381500152E-20   2.95694489674646E-15   3.88650944055674E-15   1.00000000000000E+00
      1.00000000000000E+00   0.00000000000000E+00   0.00000000000000E+00   0.00000000000000E+00   0.00000000000000E+00
      0.00000000000000E+00   7.24538395505988E-16
      8.42444444444445E-01
      0.00000000000000E+00   0.00000000000000E+00   0.00000000000000E+00   0.00000000000000E+00   1.59883025138680E-19
     -1.83516344798261E-15  -1.83500356495747E-15  -6.20832174620977E-15   0.00000000000000E+00   0.00000000000000E+00
      0.00000000000000E+00   0.00000000000000E+00  -1.13841504145020E-15  -5.58878897698616E-27  -1.13841504145579E-15
      1.54317256319707E-15   2.52733333333333E+00   2.52733333333333E+00   0.00000000000000E+00   0.00000000000000E+00
      2.97338175254013E-15   3.68538731292891E-20   2.97341860641326E-15   3.94744731778360E-15   1.00000000000000E+00
      1.00000000000000E+00   0.00000000000000E+00   0.00000000000000E+00   0.00000000000000E+00   0.00000000000000E+00
      0.00000000000000E+00   7.17701865229097E-16
      8.67444444444445E-01
      0.00000000000000E+00   0.00000000000000E+00   0.00000000000000E+00   0.00000000000000E+00  -4.55570100342391E-19