DF-ISE text

Info {
  version   = 1.0
  type      = xyplot
  datasets  = [
    "time"
    "substrate OuterVoltage" "substrate InnerVoltage" "substrate QuasiFermiPotential" "substrate DisplacementCurrent" "substrate eCurrent"
    "substrate hCurrent" "substrate TotalCurrent" "substrate Charge" "source OuterVoltage" "source InnerVoltage"
    "source QuasiFermiPotential" "source DisplacementCurrent" "source eCurrent" "source hCurrent" "source TotalCurrent"
    "source Charge" "drain OuterVoltage" "drain InnerVoltage" "drain QuasiFermiPotential" "drain DisplacementCurrent"
    "drain eCurrent" "drain hCurrent" "drain TotalCurrent" "drain Charge" "gate OuterVoltage"
    "gate InnerVoltage" "gate QuasiFermiPotential" "gate DisplacementCurrent" "gate eCurrent" "gate hCurrent"
    "gate TotalCurrent" "gate Charge" ]
  functions = [
    Time
    OuterVoltage InnerVoltage QuasiFermiPotential DisplacementCurrent eCurrent
    hCurrent TotalCurrent Charge OuterVoltage InnerVoltage
    QuasiFermiPotential DisplacementCurrent eCurrent hCurrent TotalCurrent
    Charge OuterVoltage InnerVoltage QuasiFermiPotential DisplacementCurrent
    eCurrent hCurrent TotalCurrent Charge OuterVoltage
    InnerVoltage QuasiFermiPotential DisplacementCurrent eCurrent hCurrent
    TotalCurrent Charge ]
}

Data {
      0.00000000000000E+00
      0.00000000000000E+00   0.00000000000000E+00   0.00000000000000E+00   0.00000000000000E+00  -3.98817746997046E-18
     -2.37690281232456E-28  -3.98817747020815E-18  -2.70358946584531E-15   0.00000000000000E+00   0.00000000000000E+00
      0.00000000000000E+00   0.00000000000000E+00   1.62599013799151E-18  -1.50936700891304E-28   1.62599013784057E-18
      1.01810300242756E-15   0.00000000000000E+00   0.00000000000000E+00   0.00000000000000E+00   0.00000000000000E+00
      2.36218733197892E-18   3.88660938872235E-28   2.36218733236758E-18   1.01810300242756E-15   1.00000000000000E+00
      1.00000000000000E+00   0.00000000000000E+00   0.00000000000000E+00   0.00000000000000E+00   0.00000000000000E+00
      0.00000000000000E+00   6.67383460990197E-16
      1.00000000000000E-02
      0.00000000000000E+00   0.00000000000000E+00   0.00000000000000E+00   0.00000000000000E+00  -3.49484140865307E-18
     -1.25632506169061E-16  -1.29127347577714E-16  -2.72884048142909E-15   0.00000000000000E+00   0.00000000000000E+00
      0.00000000000000E+00   0.00000000000000E+00  -4.16636780239437E-10  -1.38287031639098E-28  -4.16636780239437E-10
      1.01798936906259E-15   3.00000000000000E-02   3.00000000000000E-02   0.00000000000000E+00   0.00000000000000E+00
      4.16636909357131E-10   9.65359196081869E-21   4.16636909366785E-10   1.05681733200875E-15   1.00000000000000E+00
      1.00000000000000E+00   0.00000000000000E+00   0.00000000000000E+00   0.00000000000000E+00   0.00000000000000E+00
      0.00000000000000E+00   6.54033780357757E-16
      2.33333333333333E-02
      0.00000000000000E+00   0.00000000000000E+00   0.00000000000000E+00   0.00000000000000E+00  -5.17303288301301E-18
     -2.71445065638880E-16  -2.76618098521893E-16  -2.76236238941558E-15   0.00000000000000E+00   0.00000000000000E+00
      0.00000000000000E+00   0.00000000000000E+00  -5.32672404199551E-10   2.50961022835639E-28  -5.32672404199551E-10
      1.01783280966875E-15   7.00000000000000E-02   7.00000000000000E-02   0.00000000000000E+00   0.00000000000000E+00
      5.32672680804957E-10   1.26924322423856E-20   5.32672680817650E-10   1.10823062749435E-15   1.00000000000000E+00
      1.00000000000000E+00   0.00000000000000E+00   0.00000000000000E+00   0.00000000000000E+00   0.00000000000000E+00
      0.00000000000000E+00   6.36298952252478E-16
      4.20000000000000E-02
      0.00000000000000E+00   0.00000000000000E+00   0.00000000000000E+00   0.00000000000000E+00  -4.18891272052950E-18
     -4.36091429757578E-16  -4.40280342478107E-16  -2.80897963516689E-15   0.00000000000000E+00   0.00000000000000E+00
      0.00000000000000E+00   0.00000000000000E+00  -5.74144902408729E-10  -2.18837319238242E-28  -5.74144902408729E-10
      1.01760275929376E-15   1.26000000000000E-01   1.26000000000000E-01   0.00000000000000E+00   0.00000000000000E+00
      5.74145342676011E-10   1.30601653172640E-20   5.74145342689071E-10   1.17981970039836E-15   1.00000000000000E+00
      1.00000000000000E+00   0.00000000000000E+00   0.00000000000000E+00   0.00000000000000E+00   0.00000000000000E+00
      0.00000000000000E+00   6.11557175474769E-16
      6.70000000000000E-02
      0.00000000000000E+00   0.00000000000000E+00   0.00000000000000E+00   0.00000000000000E+00  -3.36105951321911E-18
     -5.70430841226606E-16  -5.73791900739825E-16  -2.87089462947044E-15   0.00000000000000E+00   0.00000000000000E+00
      0.00000000000000E+00   0.00000000000000E+00  -7.26262191731209E-10  -1.93687778410456E-28  -7.26262191731209E-10
      1.01727369948273E-15   2.01000000000000E-01   2.01000000000000E-01   0.00000000000000E+00   0.00000000000000E+00
      7.26262765510163E-10   1.29481377610613E-20   7.26262765523111E-10   1.27504901016999E-15   1.00000000000000E+00
      1.00000000000000E+00   0.00000000000000E+00   0.00000000000000E+00   0.00000000000000E+00   0.00000000000000E+00
      0.00000000000000E+00   5.78571919817721E-16
      9.20000000000000E-02
      0.00000000000000E+00   0.00000000000000E+00   0.00000000000000E+00   0.00000000000000E+00   3.45542776929141E-15
     -6.41708293226280E-16   2.81371947606513E-15  -2.93237071028752E-15   0.00000000000000E+00   0.00000000000000E+00
      0.00000000000000E+00   0.00000000000000E+00  -9.63193573980685E-10  -1.67129491335677E-28  -9.63193573980685E-10
      1.01692051151401E-15   2.76000000000000E-01   2.76000000000000E-01   0.00000000000000E+00   0.00000000000000E+00
      9.63190760248233E-10   1.29759024238887E-20   9.63190760261209E-10   1.36964065042683E-15   1.00000000000000E+00
      1.00000000000000E+00   0.00000000000000E+00   0.00000000000000E+00   0.00000000000000E+00   0.00000000000000E+00
      0.00000000000000E+00   5.45809548346683E-16
      1.17000000000000E-01
      0.00000000000000E+00   0.00000000000000E+00   0.00000000000000E+00   0.00000000000000E+00   5.15638278782665E-15
     -6.81133928158255E-16   4.47524885966839E-15  -2.99356763214830E-15   0.00000000000000E+00   0.00000000000000E+00
      0.00000000000000E+00   0.00000000000000E+00  -1.25385365479592E-09  -1.98437061072080E-28  -1.25385365479592E-09
      1.01654368898277E-15   3.51000000000000E-01   3.51000000000000E-01   0.00000000000000E+00   0.00000000000000E+00
      1.25384917953405E-09   1.30046870622838E-20   1.25384917954705E-09   1.46367524363110E-15   1.00000000000000E+00
      1.00000000000000E+00   0.00000000000000E+00   0.00000000000000E+00   0.00000000000000E+00   0.00000000000000E+00
      0.00000000000000E+00   5.13348699534427E-16
      1.42000000000000E-01
      0.00000000000000E+00   0.00000000000000E+00   0.00000000000000E+00   0.00000000000000E+00  -1.90647285507130E-18
     -7.09876158360441E-16  -7.11782631215512E-16  -3.05452536455654E-15   0.00000000000000E+00   0.00000000000000E+00
      0.00000000000000E+00   0.00000000000000E+00  -1.60710783217071E-09   1.16803590172697E-28  -1.60710783217071E-09
      1.01614374525580E-15   4.26000000000000E-01   4.26000000000000E-01   0.00000000000000E+00   0.00000000000000E+00
      1.60710854394031E-09   1.30270051102117E-20   1.60710854395334E-09   1.55713018831772E-15   1.00000000000000E+00
      1.00000000000000E+00   0.00000000000000E+00   0.00000000000000E+00   0.00000000000000E+00   0.00000000000000E+00
      0.00000000000000E+00   4.81251430983027E-16
      1.67000000000000E-01
      0.00000000000000E+00   0.00000000000000E+00   0.00000000000000E+00   0.00000000000000E+00   8.55783348684428E-18
     -7.35211802190079E-16  -7.26653968703235E-16  -3.11507217277682E-15   0.00000000000000E+00   0.00000000000000E+00
      0.00000000000000E+00   0.00000000000000E+00  -2.03326899406016E-09  -6.46986493554820E-28  -2.03326899406016E-09
      1.01572069978286E-15   5.01000000000000E-01   5.01000000000000E-01   0.00000000000000E+00   0.00000000000000E+00
      2.03326972070110E-09   1.30431521848188E-20   2.03326972071414E-09   1.64983211713263E-15   1.00000000000000E+00
      1.00000000000000E+00   0.00000000000000E+00   0.00000000000000E+00   0.00000000000000E+00   0.00000000000000E+00
      0.00000000000000E+00   4.49519355861322E-16
      1.92000000000000E-01
      0.00000000000000E+00   0.00000000000000E+00   0.00000000000000E+00   0.00000000000000E+00   1.52777218032807E-16
     -7.55175809845150E-16  -6.02398591812342E-16  -3.17485697732320E-15   0.00000000000000E+00   0.00000000000000E+00
      0.00000000000000E+00   0.00000000000000E+00  -2.56139311510522E-09  -3.17818264323151E-28  -2.56139311510522E-09
      1.01527379153462E-15   5.76000000000000E-01   5.76000000000000E-01   0.00000000000000E+00   0.00000000000000E+00
      2.56139371749077E-09   1.30550945416489E-20   2.56139371750383E-09   1.74149495732609E-15   1.00000000000000E+00
      1.00000000000000E+00   0.00000000000000E+00   0.00000000000000E+00   0.00000000000000E+00   0.00000000000000E+00
      0.00000000000000E+00   4.18088228462493E-16
      2.17000000000000E-01
      0.00000000000000E+00   0.00000000000000E+00   0.00000000000000E+00   0.00000000000000E+00   3.21962976391107E-18
     -7.70504522771258E-16  -7.67284893007347E-16  -3.23346526628179E-15   0.00000000000000E+00   0.00000000000000E+00
      0.00000000000000E+00   0.00000000000000E+00  -3.22114148220122E-09  -3.32470180661505E-28  -3.22114148220122E-09
      1.01480157439838E-15   6.51000000000000E-01   6.51000000000000E-01   0.00000000000000E+00   0.00000000000000E+00
      3.22114224947307E-09   1.30638755491321E-20   3.22114224948613E-09   1.83178994330382E-15   1.00000000000000E+00
      1.00000000000000E+00   0.00000000000000E+00   0.00000000000000E+00   0.00000000000000E+00   0.00000000000000E+00
      0.00000000000000E+00   3.86873748579595E-16
      2.42000000000000E-01
      0.00000000000000E+00   0.00000000000000E+00   0.00000000000000E+00   0.00000000000000E+00  -8.21842428306770E-19
     -7.86959810819562E-16  -7.87781653247868E-16  -3.29046435519908E-15   0.00000000000000E+00   0.00000000000000E+00
      0.00000000000000E+00   0.00000000000000E+00  -4.04508693860194E-09  -5.23272714709192E-28  -4.04508693860194E-09
      1.01430211608610E-15   7.26000000000000E-01   7.26000000000000E-01   0.00000000000000E+00   0.00000000000000E+00
      4.04508772637047E-09   1.30695413676958E-20   4.04508772638354E-09   1.92035106328520E-15   1.00000000000000E+00
      1.00000000000000E+00   0.00000000000000E+00   0.00000000000000E+00   0.00000000000000E+00   0.00000000000000E+00
      0.00000000000000E+00   3.55811175827790E-16
      2.67000000000000E-01
      0.00000000000000E+00   0.00000000000000E+00   0.00000000000000E+00   0.00000000000000E+00   2.49828382838089E-18
     -8.07158315930249E-16  -8.04660032101868E-16  -3.34542511499438E-15   0.00000000000000E+00   0.00000000000000E+00
      0.00000000000000E+00   0.00000000000000E+00  -5.07352043610506E-09  -3.98106744914431E-28  -5.07352043610506E-09
      1.01377307528489E-15   8.01000000000000E-01   8.01000000000000E-01   0.00000000000000E+00   0.00000000000000E+00
      5.07352124075196E-09   1.30725758399373E-20   5.07352124076504E-09   2.00679062280019E-15   1.00000000000000E+00
      1.00000000000000E+00   0.00000000000000E+00   0.00000000000000E+00   0.00000000000000E+00   0.00000000000000E+00
      0.00000000000000E+00   3.24861416909291E-16
      2.92000000000000E-01
      0.00000000000000E+00   0.00000000000000E+00   0.00000000000000E+00   0.00000000000000E+00  -4.32819502900203E-19
     -8.30039327639765E-16  -8.30472147142665E-16  -3.39808926151052E-15   0.00000000000000E+00   0.00000000000000E+00
      0.00000000000000E+00   0.00000000000000E+00  -6.35654250476335E-09  -4.81599281685900E-28  -6.35654250476335E-09
      1.01321177555955E-15   8.76000000000000E-01   8.76000000000000E-01   0.00000000000000E+00   0.00000000000000E+00
      6.35654333522236E-09   1.30744452686424E-20   6.35654333523544E-09   2.09087454463183E-15   1.00000000000000E+00
      1.00000000000000E+00   0.00000000000000E+00   0.00000000000000E+00   0.00000000000000E+00   0.00000000000000E+00
      0.00000000000000E+00   2.94002941319143E-16
      3.17000000000000E-01
      0.00000000000000E+00   0.00000000000000E+00   0.00000000000000E+00   0.00000000000000E+00   1.78325830980013E-18
     -8.55142491721385E-16  -8.53359233411585E-16  -3.44861649709502E-15   0.00000000000000E+00   0.00000000000000E+00
      0.00000000000000E+00   0.00000000000000E+00  -7.95628129251528E-09  -8.68558902156965E-28  -7.95628129251528E-09
      1.01261537041412E-15   9.51000000000000E-01   9.51000000000000E-01   0.00000000000000E+00   0.00000000000000E+00
      7.95628214586137E-09   1.30759189216868E-20   7.95628214587444E-09   2.17277691523217E-15   1.00000000000000E+00
      1.00000000000000E+00   0.00000000000000E+00   0.00000000000000E+00   0.00000000000000E+00   0.00000000000000E+00
      0.00000000000000E+00   2.63224211448727E-16
      3.42000000000000E-01
      0.00000000000000E+00   0.00000000000000E+00   0.00000000000000E+00   0.00000000000000E+00   2.62311679445251E-18
     -8.80668773551306E-16  -8.78045656756854E-16  -3.49753059438932E-15   0.00000000000000E+00   0.00000000000000E+00
      0.00000000000000E+00   0.00000000000000E+00  -9.94944862448562E-09  -1.08079463898469E-27  -9.94944862448562E-09
      1.01198104652350E-15   1.02600000000000E+00   1.02600000000000E+00   0.00000000000000E+00   0.00000000000000E+00
      9.94944950251813E-09   1.30772526560613E-20   9.94944950253121E-09   2.25303068573815E-15   1.00000000000000E+00
      1.00000000000000E+00   0.00000000000000E+00   0.00000000000000E+00   0.00000000000000E+00   0.00000000000000E+00
      0.00000000000000E+00   2.32518862127676E-16
      3.67000000000000E-01
      0.00000000000000E+00   0.00000000000000E+00   0.00000000000000E+00   0.00000000000000E+00  -3.66098185916622E-19
     -9.02828337212702E-16  -9.03194435398619E-16  -3.54536245951619E-15   0.00000000000000E+00   0.00000000000000E+00
      0.00000000000000E+00   0.00000000000000E+00  -1.24303569042137E-08  -9.47865558644272E-28  -1.24303569042137E-08
      1.01130615127677E-15   1.10100000000000E+00   1.10100000000000E+00   0.00000000000000E+00   0.00000000000000E+00
      1.24303578073950E-08   1.30785502645532E-20   1.24303578074081E-08   2.33217364520959E-15   1.00000000000000E+00
      1.00000000000000E+00   0.00000000000000E+00   0.00000000000000E+00   0.00000000000000E+00   0.00000000000000E+00
      0.00000000000000E+00   2.01882663029827E-16
      3.92000000000000E-01
      0.00000000000000E+00   0.00000000000000E+00   0.00000000000000E+00   0.00000000000000E+00   1.79211056816305E-18
     -9.22223420797419E-16  -9.20431310229256E-16  -3.59243981943561E-15   0.00000000000000E+00   0.00000000000000E+00
      0.00000000000000E+00   0.00000000000000E+00  -1.55144668465157E-08  -1.01951043020739E-27  -1.55144668465157E-08
      1.01058817792074E-15   1.17600000000000E+00   1.17600000000000E+00   0.00000000000000E+00   0.00000000000000E+00
      1.55144677669339E-08   1.30798468244449E-20   1.55144677669470E-08   2.41053992126487E-15   1.00000000000000E+00
      1.00000000000000E+00   0.00000000000000E+00   0.00000000000000E+00   0.00000000000000E+00   0.00000000000000E+00
      0.00000000000000E+00   1.71311720249990E-16
      4.17000000000000E-01
      0.00000000000000E+00   0.00000000000000E+00   0.00000000000000E+00   0.00000000000000E+00   3.45856149397622E-18
     -9.42531230638658E-16  -9.39072669144682E-16  -3.63892321280239E-15   0.00000000000000E+00   0.00000000000000E+00
      0.00000000000000E+00   0.00000000000000E+00  -1.93433023603159E-08  -1.55089595624357E-27  -1.93433023603159E-08
      1.00982465440150E-15   1.25100000000000E+00   1.25100000000000E+00   0.00000000000000E+00   0.00000000000000E+00
      1.93433032993753E-08   1.30811161188011E-20   1.93433032993884E-08   2.48829671728498E-15   1.00000000000000E+00
      1.00000000000000E+00   0.00000000000000E+00   0.00000000000000E+00   0.00000000000000E+00   0.00000000000000E+00
      0.00000000000000E+00   1.40801841115911E-16
      4.42000000000000E-01
      0.00000000000000E+00   0.00000000000000E+00   0.00000000000000E+00   0.00000000000000E+00   2.37691409023468E-18
     -9.66229922568774E-16  -9.63853008478539E-16  -3.68489238430579E-15   0.00000000000000E+00   0.00000000000000E+00
      0.00000000000000E+00   0.00000000000000E+00  -2.40904012652469E-08  -1.61513930973108E-27  -2.40904012652469E-08
      1.00901307882357E-15   1.32600000000000E+00   1.32600000000000E+00   0.00000000000000E+00   0.00000000000000E+00
      2.40904022290867E-08   1.30823788337958E-20   2.40904022290998E-08   2.56553046089086E-15   1.00000000000000E+00
      1.00000000000000E+00   0.00000000000000E+00   0.00000000000000E+00   0.00000000000000E+00   0.00000000000000E+00
      0.00000000000000E+00   1.10348844591357E-16
      4.67000000000000E-01
      0.00000000000000E+00   0.00000000000000E+00   0.00000000000000E+00   0.00000000000000E+00   9.61379876391286E-18
     -9.93373812527846E-16  -9.83760013763933E-16  -3.73039424315984E-15   0.00000000000000E+00   0.00000000000000E+00
      0.00000000000000E+00   0.00000000000000E+00  -2.99679163376843E-08  -2.20036696496809E-27  -2.99679163376843E-08
      1.00815105093269E-15   1.40100000000000E+00   1.40100000000000E+00   0.00000000000000E+00   0.00000000000000E+00
      2.99679173214311E-08   1.30835872706998E-20   2.99679173214442E-08   2.64229381425609E-15   1.00000000000000E+00
      1.00000000000000E+00   0.00000000000000E+00   0.00000000000000E+00   0.00000000000000E+00   0.00000000000000E+00
      0.00000000000000E+00   7.99493779710614E-17
      4.92000000000000E-01
      0.00000000000000E+00   0.00000000000000E+00   0.00000000000000E+00   0.00000000000000E+00  -4.30617463681411E-18
     -1.02161876435449E-15  -1.02592493899130E-15  -3.77546197068249E-15   0.00000000000000E+00   0.00000000000000E+00
      0.00000000000000E+00   0.00000000000000E+00  -3.72333866555215E-08  -2.70924274275157E-27  -3.72333866555215E-08
      1.00723662805025E-15   1.47600000000000E+00   1.47600000000000E+00   0.00000000000000E+00   0.00000000000000E+00
      3.72333876814332E-08   1.30847700394002E-20   3.72333876814463E-08   2.71862355128516E-15   1.00000000000000E+00
      1.00000000000000E+00   0.00000000000000E+00   0.00000000000000E+00   0.00000000000000E+00   0.00000000000000E+00
      0.00000000000000E+00   4.96017913470899E-17
      5.17000000000000E-01
      0.00000000000000E+00   0.00000000000000E+00   0.00000000000000E+00   0.00000000000000E+00   1.77683591505531E-18
     -1.05009372227164E-15  -1.04831688635659E-15  -3.82012311053498E-15   0.00000000000000E+00   0.00000000000000E+00
      0.00000000000000E+00   0.00000000000000E+00  -4.61964105941438E-08  -3.68767053721064E-27  -4.61964105941438E-08
      1.00626872719427E-15   1.55100000000000E+00   1.55100000000000E+00   0.00000000000000E+00   0.00000000000000E+00
      4.61964116424474E-08   1.30859329568870E-20   4.61964116424605E-08   2.79454766801713E-15   1.00000000000000E+00
      1.00000000000000E+00   0.00000000000000E+00   0.00000000000000E+00   0.00000000000000E+00   0.00000000000000E+00
      0.00000000000000E+00   1.93067153235834E-17
      5.42000000000000E-01
      0.00000000000000E+00   0.00000000000000E+00   0.00000000000000E+00   0.00000000000000E+00   8.67897391086619E-18
     -1.08595596402524E-15  -1.07727699011437E-15  -3.86440323086724E-15   0.00000000000000E+00   0.00000000000000E+00
      0.00000000000000E+00   0.00000000000000E+00  -5.72257349179475E-08  -4.33278966501556E-27  -5.72257349179475E-08
      1.00524727341921E-15   1.62600000000000E+00   1.62600000000000E+00   0.00000000000000E+00   0.00000000000000E+00
      5.72257359952111E-08   1.30870952871365E-20   5.72257359952242E-08   2.87008887642629E-15   1.00000000000000E+00
      1.00000000000000E+00   0.00000000000000E+00   0.00000000000000E+00   0.00000000000000E+00   0.00000000000000E+00
      0.00000000000000E+00  -1.09329189782575E-17
      5.67000000000000E-01
      0.00000000000000E+00   0.00000000000000E+00   0.00000000000000E+00   0.00000000000000E+00  -2.48730574475781E-18
     -1.14652363942164E-15  -1.14901094516639E-15  -3.90832641992029E-15   0.00000000000000E+00   0.00000000000000E+00
      0.00000000000000E+00   0.00000000000000E+00  -7.07580069210101E-08  -4.74031334542595E-27  -7.07580069210101E-08
      1.00417294408835E-15   1.70100000000000E+00   1.70100000000000E+00   0.00000000000000E+00   0.00000000000000E+00
      7.07580080700077E-08   1.30882781609930E-20   7.07580080700208E-08   2.94526593542979E-15   1.00000000000000E+00
      1.00000000000000E+00   0.00000000000000E+00   0.00000000000000E+00   0.00000000000000E+00   0.00000000000000E+00
      0.00000000000000E+00  -4.11124595978425E-17
      5.92000000000000E-01
      0.00000000000000E+00   0.00000000000000E+00   0.00000000000000E+00   0.00000000000000E+00   1.07628363978628E-18
     -1.24488480930275E-15  -1.24380852566296E-15  -3.95191384968913E-15   0.00000000000000E+00   0.00000000000000E+00
      0.00000000000000E+00   0.00000000000000E+00  -8.73105602971371E-08  -6.13088834146689E-27  -8.73105602971371E-08
      1.00304670189298E-15   1.77600000000000E+00   1.77600000000000E+00   0.00000000000000E+00   0.00000000000000E+00
      8.73105615409324E-08   1.30894936454123E-20   8.73105615409454E-08   3.02009363074113E-15   1.00000000000000E+00
      1.00000000000000E+00   0.00000000000000E+00   0.00000000000000E+00   0.00000000000000E+00   0.00000000000000E+00
      0.00000000000000E+00  -7.12264829449816E-17
      6.17000000000000E-01
      0.00000000000000E+00   0.00000000000000E+00   0.00000000000000E+00   0.00000000000000E+00  -3.56651393973167E-18
     -1.35978697186096E-15  -1.36335348580069E-15  -3.99518256279724E-15   0.00000000000000E+00   0.00000000000000E+00
      0.00000000000000E+00   0.00000000000000E+00  -1.07496877831896E-07  -7.77579934550128E-27  -1.07496877831896E-07
      1.00186950540987E-15   1.85100000000000E+00   1.85100000000000E+00   0.00000000000000E+00   0.00000000000000E+00
      1.07496879195236E-07   1.30907443016137E-20   1.07496879195249E-07   3.09458275821896E-15   1.00000000000000E+00
      1.00000000000000E+00   0.00000000000000E+00   0.00000000000000E+00   0.00000000000000E+00   0.00000000000000E+00
      0.00000000000000E+00  -1.01269700831591E-16
      6.42000000000000E-01
      0.00000000000000E+00   0.00000000000000E+00   0.00000000000000E+00   0.00000000000000E+00   1.97210266871645E-18
     -1.45222286532756E-15  -1.45025076265885E-15  -4.03814588205974E-15   0.00000000000000E+00   0.00000000000000E+00
      0.00000000000000E+00   0.00000000000000E+00  -1.32042139306970E-07  -9.25347466220958E-27  -1.32042139306970E-07
      1.00064241799898E-15   1.92600000000000E+00   1.92600000000000E+00   0.00000000000000E+00   0.00000000000000E+00
      1.32042140757208E-07   1.30920319523765E-20   1.32042140757221E-07   3.16874099641506E-15   1.00000000000000E+00
      1.00000000000000E+00   0.00000000000000E+00   0.00000000000000E+00   0.00000000000000E+00   0.00000000000000E+00
      0.00000000000000E+00  -1.31237532354308E-16
      6.67000000000000E-01
      0.00000000000000E+00   0.00000000000000E+00   0.00000000000000E+00   0.00000000000000E+00   2.79605071909336E-18
     -1.51189707929006E-15  -1.50910102857097E-15  -4.08081499131865E-15   0.00000000000000E+00   0.00000000000000E+00
      0.00000000000000E+00   0.00000000000000E+00  -1.61798043137026E-07  -1.17254493959874E-26  -1.61798043137026E-07
      9.99366968703950E-16   2.00100000000000E+00   2.00100000000000E+00   0.00000000000000E+00   0.00000000000000E+00
      1.61798044646114E-07   1.30933591887648E-20   1.61798044646127E-07   3.24257429408645E-15   1.00000000000000E+00
      1.00000000000000E+00   0.00000000000000E+00   0.00000000000000E+00   0.00000000000000E+00   0.00000000000000E+00
      0.00000000000000E+00  -1.61126271471742E-16
      6.92000000000000E-01
      0.00000000000000E+00   0.00000000000000E+00   0.00000000000000E+00   0.00000000000000E+00   4.46968670633919E-18
     -1.54749340280728E-15  -1.54302371610094E-15  -4.12320008350881E-15   0.00000000000000E+00   0.00000000000000E+00
      0.00000000000000E+00   0.00000000000000E+00  -1.97755339212451E-07  -1.45630006497283E-26  -1.97755339212451E-07
      9.98045392351223E-16   2.07600000000000E+00   2.07600000000000E+00   0.00000000000000E+00   0.00000000000000E+00
      1.97755340755462E-07   1.30947287320564E-20   1.97755340755475E-07   3.31608765149150E-15   1.00000000000000E+00
      1.00000000000000E+00   0.00000000000000E+00   0.00000000000000E+00   0.00000000000000E+00   0.00000000000000E+00
      0.00000000000000E+00  -1.90932960333921E-16
      7.17000000000000E-01
      0.00000000000000E+00   0.00000000000000E+00   0.00000000000000E+00   0.00000000000000E+00  -5.81964335361162E-18
     -1.56738405188348E-15  -1.57320369523709E-15  -4.16531001055369E-15   0.00000000000000E+00   0.00000000000000E+00
      0.00000000000000E+00   0.00000000000000E+00  -2.41055751713032E-07  -1.72698050195343E-26  -2.41055751713032E-07
      9.96680504502577E-16   2.15100000000000E+00   2.15100000000000E+00   0.00000000000000E+00   0.00000000000000E+00
      2.41055753286222E-07   1.30961430005230E-20   2.41055753286235E-07   3.38928465465604E-15   1.00000000000000E+00
      1.00000000000000E+00   0.00000000000000E+00   0.00000000000000E+00   0.00000000000000E+00   0.00000000000000E+00
      0.00000000000000E+00  -2.20655148604927E-16
      7.42000000000000E-01
      0.00000000000000E+00   0.00000000000000E+00   0.00000000000000E+00   0.00000000000000E+00  -7.13421774902001E-18
     -1.57876133688193E-15  -1.58589555463095E-15  -4.20715087363744E-15   0.00000000000000E+00   0.00000000000000E+00
      0.00000000000000E+00   0.00000000000000E+00  -2.93003914505516E-07  -2.15132534045993E-26  -2.93003914505516E-07
      9.95275323158131E-16   2.22600000000000E+00   2.22600000000000E+00   0.00000000000000E+00   0.00000000000000E+00
      2.93003916091398E-07   1.30976025324627E-20   2.93003916091411E-07   3.46216616366733E-15   1.00000000000000E+00
      1.00000000000000E+00   0.00000000000000E+00   0.00000000000000E+00   0.00000000000000E+00   0.00000000000000E+00
      0.00000000000000E+00  -2.50290613188028E-16
      7.67000000000000E-01
      0.00000000000000E+00   0.00000000000000E+00   0.00000000000000E+00   0.00000000000000E+00  -2.72397170064527E-18
     -1.58727772463931E-15  -1.59000169633995E-15  -4.24872483016392E-15   0.00000000000000E+00   0.00000000000000E+00
      0.00000000000000E+00   0.00000000000000E+00  -3.55076478955518E-07  -2.57046681822516E-26  -3.55076478955518E-07
      9.93832758893164E-16   2.30100000000000E+00   2.30100000000000E+00   0.00000000000000E+00   0.00000000000000E+00
      3.55076480545506E-07   1.30991031537868E-20   3.55076480545519E-07   3.53472904169781E-15   1.00000000000000E+00
      1.00000000000000E+00   0.00000000000000E+00   0.00000000000000E+00   0.00000000000000E+00   0.00000000000000E+00
      0.00000000000000E+00  -2.79836970427064E-16
      7.92000000000000E-01
      0.00000000000000E+00   0.00000000000000E+00   0.00000000000000E+00   0.00000000000000E+00   2.62007260531605E-20
     -1.59702207947329E-15  -1.59699587874723E-15  -4.29003004973898E-15   0.00000000000000E+00   0.00000000000000E+00
      0.00000000000000E+00   0.00000000000000E+00  -4.28922373534283E-07  -3.10731116256212E-26  -4.28922373534283E-07
      9.92355596066569E-16   2.37600000000000E+00   2.37600000000000E+00   0.00000000000000E+00   0.00000000000000E+00
      4.28922375131266E-07   1.31006370382094E-20   4.28922375131279E-07   3.60696556225626E-15   1.00000000000000E+00
      1.00000000000000E+00   0.00000000000000E+00   0.00000000000000E+00   0.00000000000000E+00   0.00000000000000E+00
      0.00000000000000E+00  -3.09291108583859E-16
      8.17000000000000E-01
      0.00000000000000E+00   0.00000000000000E+00   0.00000000000000E+00   0.00000000000000E+00  -6.65826301136419E-18
     -1.61090947189315E-15  -1.61756773490451E-15  -4.33106200264589E-15   0.00000000000000E+00   0.00000000000000E+00
      0.00000000000000E+00   0.00000000000000E+00  -5.16348626317062E-07  -3.68005250922530E-26  -5.16348626317062E-07
      9.90846748224486E-16   2.45100000000000E+00   2.45100000000000E+00   0.00000000000000E+00   0.00000000000000E+00
      5.16348627934616E-07   1.31021974614777E-20   5.16348627934629E-07   3.67886383458490E-15   1.00000000000000E+00
      1.00000000000000E+00   0.00000000000000E+00   0.00000000000000E+00   0.00000000000000E+00   0.00000000000000E+00
      0.00000000000000E+00  -3.38648580163495E-16
      8.42000000000000E-01
      0.00000000000000E+00   0.00000000000000E+00   0.00000000000000E+00   0.00000000000000E+00   2.32973725214502E-18
     -1.62987589881027E-15  -1.62754616155812E-15  -4.37181577107900E-15   0.00000000000000E+00   0.00000000000000E+00
      0.00000000000000E+00   0.00000000000000E+00  -6.19294184676245E-07  -4.47736299573675E-26  -6.19294184676245E-07
      9.89309562702862E-16   2.52600000000000E+00   2.52600000000000E+00   0.00000000000000E+00   0.00000000000000E+00
      6.19294186303778E-07   1.31037803092773E-20   6.19294186303791E-07   3.75040967691092E-15   1.00000000000000E+00
      1.00000000000000E+00   0.00000000000000E+00   0.00000000000000E+00   0.00000000000000E+00   0.00000000000000E+00
      0.00000000000000E+00  -3.67903468534779E-16
      8.67000000000000E-01
      0.00000000000000E+00   0.00000000000000E+00   0.00000000000000E+00   0.00000000000000E+00   5.37677824914628E-18