DF-ISE text

Info {
  version   = 1.0
  type      = xyplot
  datasets  = [
    "time"
    "substrate OuterVoltage" "substrate InnerVoltage" "substrate QuasiFermiPotential" "substrate DisplacementCurrent" "substrate eCurrent"
    "substrate hCurrent" "substrate TotalCurrent" "substrate Charge" "source OuterVoltage" "source InnerVoltage"
    "source QuasiFermiPotential" "source DisplacementCurrent" "source eCurrent" "source hCurrent" "source TotalCurrent"
    "source Charge" "drain OuterVoltage" "drain InnerVoltage" "drain QuasiFermiPotential" "drain DisplacementCurrent"
    "drain eCurrent" "drain hCurrent" "drain TotalCurrent" "drain Charge" "gate OuterVoltage"
    "gate InnerVoltage" "gate QuasiFermiPotential" "gate DisplacementCurrent" "gate eCurrent" "gate hCurrent"
    "gate TotalCurrent" "gate Charge" ]
  functions = [
    Time
    OuterVoltage InnerVoltage QuasiFermiPotential DisplacementCurrent eCurrent
    hCurrent TotalCurrent Charge OuterVoltage InnerVoltage
    QuasiFermiPotential DisplacementCurrent eCurrent hCurrent TotalCurrent
    Charge OuterVoltage InnerVoltage QuasiFermiPotential DisplacementCurrent
    eCurrent hCurrent TotalCurrent Charge OuterVoltage
    InnerVoltage QuasiFermiPotential DisplacementCurrent eCurrent hCurrent
    TotalCurrent Charge ]
}

Data {
      0.00000000000000E+00
      0.00000000000000E+00   0.00000000000000E+00   0.00000000000000E+00   0.00000000000000E+00   6.82431751420917E-35
      4.48668539920726E-17   4.48668539920726E-17   2.62944992996604E-17   0.00000000000000E+00   0.00000000000000E+00
      0.00000000000000E+00   0.00000000000000E+00   5.15431112845988E-34   4.09894933386208E-17   4.09894933386208E-17
     -8.68342062789045E-16   0.00000000000000E+00   0.00000000000000E+00   0.00000000000000E+00   0.00000000000000E+00
     -3.48920154972479E-34  -8.58563473306933E-17  -8.58563473306933E-17  -7.46656239503324E-16   1.00000000000000E+00
      1.00000000000000E+00   0.00000000000000E+00   0.00000000000000E+00   0.00000000000000E+00   0.00000000000000E+00
      0.00000000000000E+00   1.58870380299271E-15
      1.00000000000000E-02
      0.00000000000000E+00   0.00000000000000E+00   0.00000000000000E+00   0.00000000000000E+00  -2.13766014087991E-20
     -2.52166114547990E-05  -2.52166114547990E-05   2.62722560154960E-17   0.00000000000000E+00   0.00000000000000E+00
      0.00000000000000E+00   0.00000000000000E+00  -1.71537490368458E-20  -3.58189996638683E-05  -3.58189996638684E-05
     -8.62224526924175E-16   3.00000000000000E-02   3.00000000000000E-02   0.00000000000000E+00   0.00000000000000E+00
      2.89805842984026E-20   6.10356111186674E-05   6.10356111186674E-05  -7.41218826852160E-16   1.00000000000000E+00
      1.00000000000000E+00   0.00000000000000E+00   0.00000000000000E+00   0.00000000000000E+00   0.00000000000000E+00
      0.00000000000000E+00   1.57717109776084E-15
      2.36666666666667E-02
      0.00000000000000E+00   0.00000000000000E+00   0.00000000000000E+00   0.00000000000000E+00  -6.17703263522783E-20
     -5.96023309300770E-05  -5.96023309300770E-05   2.62419315573515E-17   0.00000000000000E+00   0.00000000000000E+00
      0.00000000000000E+00   0.00000000000000E+00  -4.07720457331699E-20  -8.47483089342237E-05  -8.47483089342237E-05
     -8.53876433121821E-16   7.10000000000000E-02   7.10000000000000E-02   0.00000000000000E+00   0.00000000000000E+00
      6.77584409324575E-20   1.44350639864301E-04   1.44350639864301E-04  -7.33798679165884E-16   1.00000000000000E+00
      1.00000000000000E+00   0.00000000000000E+00   0.00000000000000E+00   0.00000000000000E+00   0.00000000000000E+00
      0.00000000000000E+00   1.56143318073035E-15
      4.37111111111111E-02
      0.00000000000000E+00   0.00000000000000E+00   0.00000000000000E+00   0.00000000000000E+00  -1.49629967194668E-19
     -1.09865177543879E-04  -1.09865177543879E-04   2.61976201547329E-17   0.00000000000000E+00   0.00000000000000E+00
      0.00000000000000E+00   0.00000000000000E+00  -7.56767079567247E-20  -1.56464819054326E-04  -1.56464819054326E-04
     -8.41658007779127E-16   1.31133333333333E-01   1.31133333333333E-01   0.00000000000000E+00   0.00000000000000E+00
      1.22583206035259E-19   2.66329996598205E-04   2.66329996598205E-04  -7.22938102703313E-16   1.00000000000000E+00
      1.00000000000000E+00   0.00000000000000E+00   0.00000000000000E+00   0.00000000000000E+00   0.00000000000000E+00
      0.00000000000000E+00   1.53839849032771E-15
      6.87111111111111E-02
      0.00000000000000E+00   0.00000000000000E+00   0.00000000000000E+00   0.00000000000000E+00  -3.06672729677493E-19
     -1.72263867787202E-04  -1.72263867787202E-04   2.61426356973428E-17   0.00000000000000E+00   0.00000000000000E+00
      0.00000000000000E+00   0.00000000000000E+00  -1.19449619514683E-19  -2.45839787716291E-04  -2.45839787716291E-04
     -8.26459754360897E-16   2.06133333333333E-01   2.06133333333333E-01   0.00000000000000E+00   0.00000000000000E+00
      1.87260756326964E-19   4.18103655503493E-04   4.18103655503493E-04  -7.09428366978273E-16   1.00000000000000E+00
      1.00000000000000E+00   0.00000000000000E+00   0.00000000000000E+00   0.00000000000000E+00   0.00000000000000E+00
      0.00000000000000E+00   1.50974548564183E-15
      9.37111111111111E-02
      0.00000000000000E+00   0.00000000000000E+00   0.00000000000000E+00   0.00000000000000E+00  -4.93747606290070E-19
     -2.34336519092161E-04  -2.34336519092161E-04   2.60879679382914E-17   0.00000000000000E+00   0.00000000000000E+00
      0.00000000000000E+00   0.00000000000000E+00  -1.63262677520431E-19  -3.35143316673648E-04  -3.35143316673648E-04
     -8.11304833202986E-16   2.81133333333333E-01   2.81133333333333E-01   0.00000000000000E+00   0.00000000000000E+00
      2.47985669603705E-19   5.69479835765809E-04   5.69479835765809E-04  -6.95956646995601E-16   1.00000000000000E+00
      1.00000000000000E+00   0.00000000000000E+00   0.00000000000000E+00   0.00000000000000E+00   0.00000000000000E+00
      0.00000000000000E+00   1.48117351226030E-15
      1.18711111111111E-01
      0.00000000000000E+00   0.00000000000000E+00   0.00000000000000E+00   0.00000000000000E+00  -6.80975453257787E-19
     -2.96084010511004E-04  -2.96084010511005E-04   2.60336164361055E-17   0.00000000000000E+00   0.00000000000000E+00
      0.00000000000000E+00   0.00000000000000E+00  -2.06935894902781E-19  -4.24385397169058E-04  -4.24385397169058E-04
     -7.96190818733951E-16   3.56133333333333E-01   3.56133333333333E-01   0.00000000000000E+00   0.00000000000000E+00
      3.05211913519681E-19   7.20469407680063E-04   7.20469407680063E-04  -6.82520818845755E-16   1.00000000000000E+00
      1.00000000000000E+00   0.00000000000000E+00   0.00000000000000E+00   0.00000000000000E+00   0.00000000000000E+00
      0.00000000000000E+00   1.45267802114360E-15
      1.43711111111111E-01
      0.00000000000000E+00   0.00000000000000E+00   0.00000000000000E+00   0.00000000000000E+00  -8.54946506930784E-19
     -3.57510179316651E-04  -3.57510179316652E-04   2.59795779482508E-17   0.00000000000000E+00   0.00000000000000E+00
      0.00000000000000E+00   0.00000000000000E+00  -2.50364537340398E-19  -5.13576763171010E-04  -5.13576763171010E-04
     -7.81115113414261E-16   4.31133333333333E-01   4.31133333333333E-01   0.00000000000000E+00   0.00000000000000E+00
      3.59542944427860E-19   8.71086942487661E-04   8.71086942487662E-04  -6.69118603185494E-16   1.00000000000000E+00
      1.00000000000000E+00   0.00000000000000E+00   0.00000000000000E+00   0.00000000000000E+00   0.00000000000000E+00
      0.00000000000000E+00   1.42425413865150E-15
      1.68711111111111E-01
      0.00000000000000E+00   0.00000000000000E+00   0.00000000000000E+00   0.00000000000000E+00  -1.01619240788662E-18
     -4.18620652031299E-04  -4.18620652031300E-04   2.59258475256047E-17   0.00000000000000E+00   0.00000000000000E+00
      0.00000000000000E+00   0.00000000000000E+00  -2.93512596279625E-19  -6.02728430126254E-04  -6.02728430126254E-04
     -7.66075027314386E-16   5.06133333333333E-01   5.06133333333333E-01   0.00000000000000E+00   0.00000000000000E+00
      4.11723107003546E-19   1.02134908215755E-03   1.02134908215755E-03  -6.55747637407582E-16   1.00000000000000E+00
      1.00000000000000E+00   0.00000000000000E+00   0.00000000000000E+00   0.00000000000000E+00   0.00000000000000E+00
      0.00000000000000E+00   1.39589681719636E-15
      1.93711111111111E-01
      0.00000000000000E+00   0.00000000000000E+00   0.00000000000000E+00   0.00000000000000E+00  -1.16898763456547E-18
     -4.79422026239259E-04  -4.79422026239260E-04   2.58724192863500E-17   0.00000000000000E+00   0.00000000000000E+00
      0.00000000000000E+00   0.00000000000000E+00  -3.36391391719982E-19  -6.91851208549832E-04  -6.91851208549833E-04
     -7.51067868704994E-16   5.81133333333333E-01   5.81133333333333E-01   0.00000000000000E+00   0.00000000000000E+00
      4.62548481722509E-19   1.17127323478909E-03   1.17127323478909E-03  -6.42405555743505E-16   1.00000000000000E+00
      1.00000000000000E+00   0.00000000000000E+00   0.00000000000000E+00   0.00000000000000E+00   0.00000000000000E+00
      0.00000000000000E+00   1.36760100516215E-15
      2.18711111111111E-01
      0.00000000000000E+00   0.00000000000000E+00   0.00000000000000E+00   0.00000000000000E+00  -1.31674114478980E-18
     -5.39921277310477E-04  -5.39921277310479E-04   2.58192869343885E-17   0.00000000000000E+00   0.00000000000000E+00
      0.00000000000000E+00   0.00000000000000E+00  -3.79038049692106E-19  -7.80955298870103E-04  -7.80955298870104E-04
     -7.36091022298134E-16   6.56133333333333E-01   6.56133333333333E-01   0.00000000000000E+00   0.00000000000000E+00
      5.12757820187081E-19   1.32087657618058E-03   1.32087657618058E-03  -6.29090061191525E-16   1.00000000000000E+00
      1.00000000000000E+00   0.00000000000000E+00   0.00000000000000E+00   0.00000000000000E+00   0.00000000000000E+00
      0.00000000000000E+00   1.33936179655527E-15
      2.43711111111111E-01
      0.00000000000000E+00   0.00000000000000E+00   0.00000000000000E+00   0.00000000000000E+00  -1.46140347511757E-18
     -6.00125344529209E-04  -6.00125344529211E-04   2.57664441585584E-17   0.00000000000000E+00   0.00000000000000E+00
      0.00000000000000E+00   0.00000000000000E+00  -4.21499960077867E-19  -8.70049998282819E-04  -8.70049998282819E-04
     -7.21142009282748E-16   7.31133333333333E-01   7.31133333333333E-01   0.00000000000000E+00   0.00000000000000E+00
      5.62973757165167E-19   1.47017534281203E-03   1.47017534281203E-03  -6.15798977571787E-16   1.00000000000000E+00
      1.00000000000000E+00   0.00000000000000E+00   0.00000000000000E+00   0.00000000000000E+00   0.00000000000000E+00
      0.00000000000000E+00   1.31117454269598E-15
      2.68711111111111E-01
      0.00000000000000E+00   0.00000000000000E+00   0.00000000000000E+00   0.00000000000000E+00  -1.60394385521619E-18
     -6.60040862146086E-04  -6.60040862146088E-04   2.57138848862919E-17   0.00000000000000E+00   0.00000000000000E+00
      0.00000000000000E+00   0.00000000000000E+00  -4.63825281004393E-19  -9.59143537220846E-04  -9.59143537220847E-04
     -7.06218525352548E-16   8.06133333333333E-01   8.06133333333333E-01   0.00000000000000E+00   0.00000000000000E+00
      6.13690491155852E-19   1.61918439936693E-03   1.61918439936693E-03  -6.02530283088767E-16   1.00000000000000E+00
      1.00000000000000E+00   0.00000000000000E+00   0.00000000000000E+00   0.00000000000000E+00   0.00000000000000E+00
      0.00000000000000E+00   1.28303492355502E-15
      2.93711111111111E-01
      0.00000000000000E+00   0.00000000000000E+00   0.00000000000000E+00   0.00000000000000E+00  -1.74481252221494E-18
     -7.19674002200862E-04  -7.19674002200864E-04   2.56616034298562E-17   0.00000000000000E+00   0.00000000000000E+00
      0.00000000000000E+00   0.00000000000000E+00  -5.06057974841345E-19  -1.04824302359654E-03  -1.04824302359654E-03
     -6.91318459691831E-16   8.81133333333333E-01   8.81133333333333E-01   0.00000000000000E+00   0.00000000000000E+00
      6.65285127148431E-19   1.76791702579741E-03   1.76791702579741E-03  -5.89282127348439E-16   1.00000000000000E+00
      1.00000000000000E+00   0.00000000000000E+00   0.00000000000000E+00   0.00000000000000E+00   0.00000000000000E+00
      0.00000000000000E+00   1.25493898361041E-15
      3.18711111111111E-01
      0.00000000000000E+00   0.00000000000000E+00   0.00000000000000E+00   0.00000000000000E+00  -1.88421501629953E-18
     -7.79030398164531E-04  -7.79030398164532E-04   2.56095945804857E-17   0.00000000000000E+00   0.00000000000000E+00
      0.00000000000000E+00   0.00000000000000E+00  -5.48235796255090E-19  -1.13735446353296E-03  -1.13735446353296E-03
     -6.76439900533999E-16   9.56133333333333E-01   9.56133333333333E-01   0.00000000000000E+00   0.00000000000000E+00
      7.18036736980177E-19   1.91638486169749E-03   1.91638486169749E-03  -5.76052835181806E-16   1.00000000000000E+00
      1.00000000000000E+00   0.00000000000000E+00   0.00000000000000E+00   0.00000000000000E+00   0.00000000000000E+00
      0.00000000000000E+00   1.22688314113532E-15
      3.43711111111111E-01
      0.00000000000000E+00   0.00000000000000E+00   0.00000000000000E+00   0.00000000000000E+00  -2.02224897107535E-18
     -8.38115123289675E-04  -8.38115123289677E-04   2.55578535834947E-17   0.00000000000000E+00   0.00000000000000E+00
      0.00000000000000E+00   0.00000000000000E+00  -5.90389987909871E-19  -1.22648284584642E-03  -1.22648284584642E-03
     -6.61581128877308E-16   1.03113333333333E+00   1.03113333333333E+00   0.00000000000000E+00   0.00000000000000E+00
      7.72145550625822E-19   2.06459796913609E-03   2.06459796913609E-03  -5.62840903526549E-16   1.00000000000000E+00
      1.00000000000000E+00   0.00000000000000E+00   0.00000000000000E+00   0.00000000000000E+00   0.00000000000000E+00
      0.00000000000000E+00   1.19886417882036E-15
      3.68711111111111E-01
      0.00000000000000E+00   0.00000000000000E+00   0.00000000000000E+00   0.00000000000000E+00  -2.15896630286066E-18
     -8.96932703582348E-04  -8.96932703582350E-04   2.55063761755841E-17   0.00000000000000E+00   0.00000000000000E+00
      0.00000000000000E+00   0.00000000000000E+00  -6.32545813945569E-19  -1.31563223895973E-03  -1.31563223895973E-03
     -6.46740609070423E-16   1.10613333333333E+00   1.10613333333333E+00   0.00000000000000E+00   0.00000000000000E+00
      8.27749593126228E-19   2.21256494254207E-03   2.21256494254207E-03  -5.49644990800843E-16   1.00000000000000E+00
      1.00000000000000E+00   0.00000000000000E+00   0.00000000000000E+00   0.00000000000000E+00   0.00000000000000E+00
      0.00000000000000E+00   1.17087922369568E-15
      3.93711111111111E-01
      0.00000000000000E+00   0.00000000000000E+00   0.00000000000000E+00   0.00000000000000E+00  -2.29439985416198E-18
     -9.55487150585771E-04  -9.55487150585774E-04   2.54551585612748E-17   0.00000000000000E+00   0.00000000000000E+00
      0.00000000000000E+00   0.00000000000000E+00  -6.74723423384339E-19  -1.40480590722412E-03  -1.40480590722412E-03
     -6.31916974979127E-16   1.18113333333333E+00   1.18113333333333E+00   0.00000000000000E+00   0.00000000000000E+00
      8.84938284007464E-19   2.36029305780990E-03   2.36029305780990E-03  -5.36463904719543E-16   1.00000000000000E+00
      1.00000000000000E+00   0.00000000000000E+00   0.00000000000000E+00   0.00000000000000E+00   0.00000000000000E+00
      0.00000000000000E+00   1.14292572113740E-15
      4.18711111111111E-01
      0.00000000000000E+00   0.00000000000000E+00   0.00000000000000E+00   0.00000000000000E+00  -2.42857434865739E-18
     -1.01378200466560E-03  -1.01378200466560E-03   2.54041973591520E-17   0.00000000000000E+00   0.00000000000000E+00
      0.00000000000000E+00   0.00000000000000E+00  -7.16938758568137E-19  -1.49400642351732E-03  -1.49400642351732E-03
     -6.17109014419647E-16   1.25613333333333E+00   1.25613333333333E+00   0.00000000000000E+00   0.00000000000000E+00
      9.43763282308953E-19   2.50778842818292E-03   2.50778842818292E-03  -5.23296588252135E-16   1.00000000000000E+00
      1.00000000000000E+00   0.00000000000000E+00   0.00000000000000E+00   0.00000000000000E+00   0.00000000000000E+00
      0.00000000000000E+00   1.11500140531263E-15
      4.43711111111111E-01
      0.00000000000000E+00   0.00000000000000E+00   0.00000000000000E+00   0.00000000000000E+00  -2.56151077572196E-18
     -1.07182038109830E-03  -1.07182038109830E-03   2.53534895526581E-17   0.00000000000000E+00   0.00000000000000E+00
      0.00000000000000E+00   0.00000000000000E+00  -7.59204387230667E-19  -1.58323578848318E-03  -1.58323578848318E-03
     -6.02315653651538E-16   1.33113333333333E+00   1.33113333333333E+00   0.00000000000000E+00   0.00000000000000E+00
      1.00424702896451E-18   2.65505616958148E-03   2.65505616958148E-03  -5.10142107630312E-16   1.00000000000000E+00
      1.00000000000000E+00   0.00000000000000E+00   0.00000000000000E+00   0.00000000000000E+00   0.00000000000000E+00
      0.00000000000000E+00   1.08710427172919E-15
      4.68711111111111E-01
      0.00000000000000E+00   0.00000000000000E+00   0.00000000000000E+00   0.00000000000000E+00  -2.69322813446135E-18
     -1.12960501677775E-03  -1.12960501677775E-03   2.53030324834429E-17   0.00000000000000E+00   0.00000000000000E+00
      0.00000000000000E+00   0.00000000000000E+00  -8.01530195473060E-19  -1.67249551690501E-03  -1.67249551690501E-03
     -5.87535943865664E-16   1.40613333333333E+00   1.40613333333333E+00   0.00000000000000E+00   0.00000000000000E+00
      1.06638950299107E-18   2.80210053368276E-03   2.80210053368276E-03  -4.96999638185422E-16   1.00000000000000E+00
      1.00000000000000E+00   0.00000000000000E+00   0.00000000000000E+00   0.00000000000000E+00   0.00000000000000E+00
      0.00000000000000E+00   1.05923254956764E-15
      4.93711111111111E-01
      0.00000000000000E+00   0.00000000000000E+00   0.00000000000000E+00   0.00000000000000E+00  -2.82374414581989E-18
     -1.18713831423073E-03  -1.18713831423073E-03   2.52528237986989E-17   0.00000000000000E+00   0.00000000000000E+00
      0.00000000000000E+00   0.00000000000000E+00  -8.43923955113171E-19  -1.76178672638220E-03  -1.76178672638220E-03
     -5.72769047438062E-16   1.48113333333333E+00   1.48113333333333E+00   0.00000000000000E+00   0.00000000000000E+00
      1.13017353374938E-18   2.94892504061293E-03   2.94892504061293E-03  -4.83868452770885E-16   1.00000000000000E+00
      1.00000000000000E+00   0.00000000000000E+00   0.00000000000000E+00   0.00000000000000E+00   0.00000000000000E+00
      0.00000000000000E+00   1.03138467641025E-15
      5.18711111111111E-01
      0.00000000000000E+00   0.00000000000000E+00   0.00000000000000E+00   0.00000000000000E+00  -2.95307557001691E-18
     -1.24442238216745E-03  -1.24442238216746E-03   2.52028614168451E-17   0.00000000000000E+00   0.00000000000000E+00
      0.00000000000000E+00   0.00000000000000E+00  -8.86391771449733E-19  -1.85111021102861E-03  -1.85111021102861E-03
     -5.58014225818903E-16   1.55613333333333E+00   1.55613333333333E+00   0.00000000000000E+00   0.00000000000000E+00
      1.19556898799425E-18   3.09553259319606E-03   3.09553259319606E-03  -4.70747911055559E-16   1.00000000000000E+00
      1.00000000000000E+00   0.00000000000000E+00   0.00000000000000E+00   0.00000000000000E+00   0.00000000000000E+00
      0.00000000000000E+00   1.00355927545762E-15
      5.43711111111111E-01
      0.00000000000000E+00   0.00000000000000E+00   0.00000000000000E+00   0.00000000000000E+00  -3.08123837297048E-18
     -1.30145907215081E-03  -1.30145907215081E-03   2.51531434956347E-17   0.00000000000000E+00   0.00000000000000E+00
      0.00000000000000E+00   0.00000000000000E+00  -9.28938432308533E-19  -1.94046650323351E-03  -1.94046650323351E-03
     -5.43270828665094E-16   1.63113333333333E+00   1.63113333333333E+00   0.00000000000000E+00   0.00000000000000E+00
      1.26253606282817E-18   3.24192557538431E-03   3.24192557538432E-03  -4.57637449886020E-16   1.00000000000000E+00
      1.00000000000000E+00   0.00000000000000E+00   0.00000000000000E+00   0.00000000000000E+00   0.00000000000000E+00
      0.00000000000000E+00   9.75755135055480E-16
      5.68711111111111E-01
      0.00000000000000E+00   0.00000000000000E+00   0.00000000000000E+00   0.00000000000000E+00  -3.20824783273249E-18
     -1.35825001140455E-03  -1.35825001140455E-03   2.51036684032515E-17   0.00000000000000E+00   0.00000000000000E+00
      0.00000000000000E+00   0.00000000000000E+00  -9.71567678150742E-19  -2.02985592504741E-03  -2.02985592504741E-03
     -5.28538284151258E-16   1.70613333333333E+00   1.70613333333333E+00   0.00000000000000E+00   0.00000000000000E+00
      1.33102786501019E-18   3.38810593645196E-03   3.38810593645196E-03  -4.44536574708453E-16   1.00000000000000E+00
      1.00000000000000E+00   0.00000000000000E+00   0.00000000000000E+00   0.00000000000000E+00   0.00000000000000E+00
      0.00000000000000E+00   9.47971190456458E-16
      5.93711111111111E-01
      0.00000000000000E+00   0.00000000000000E+00   0.00000000000000E+00   0.00000000000000E+00  -3.33411861921120E-18
     -1.41479663189753E-03  -1.41479663189753E-03   2.50544346935781E-17   0.00000000000000E+00   0.00000000000000E+00
      0.00000000000000E+00   0.00000000000000E+00  -1.01428241024699E-18  -2.11927863029075E-03  -2.11927863029075E-03
     -5.13816090408692E-16   1.78113333333333E+00   1.78113333333333E+00   0.00000000000000E+00   0.00000000000000E+00
      1.40099248239429E-18   3.53407526218828E-03   3.53407526218828E-03  -4.31444852029594E-16   1.00000000000000E+00
      1.00000000000000E+00   0.00000000000000E+00   0.00000000000000E+00   0.00000000000000E+00   0.00000000000000E+00
      0.00000000000000E+00   9.20206507744711E-16
      6.18711111111111E-01
      0.00000000000000E+00   0.00000000000000E+00   0.00000000000000E+00   0.00000000000000E+00  -3.45886485965579E-18
     -1.47110019606046E-03  -1.47110019606046E-03   2.50054410812138E-17   0.00000000000000E+00   0.00000000000000E+00
      0.00000000000000E+00   0.00000000000000E+00  -1.05708485121439E-18  -2.20873463923171E-03  -2.20873463923171E-03
     -4.99103807883223E-16   1.85613333333333E+00   1.85613333333333E+00   0.00000000000000E+00   0.00000000000000E+00
      1.47237462660003E-18   3.67983483529216E-03   3.67983483529217E-03  -4.18361902627670E-16   1.00000000000000E+00
      1.00000000000000E+00   0.00000000000000E+00   0.00000000000000E+00   0.00000000000000E+00   0.00000000000000E+00
      0.00000000000000E+00   8.92460269429675E-16
      6.43711111111111E-01
      0.00000000000000E+00   0.00000000000000E+00   0.00000000000000E+00   0.00000000000000E+00  -3.58250019466477E-18
     -1.52716181944608E-03  -1.52716181944608E-03   2.49566864206910E-17   0.00000000000000E+00   0.00000000000000E+00
      0.00000000000000E+00   0.00000000000000E+00  -1.09997666878786E-18  -2.29822386648961E-03  -2.29822386648961E-03
     -4.84401052605462E-16   1.93113333333333E+00   1.93113333333333E+00   0.00000000000000E+00   0.00000000000000E+00
      1.54511690717620E-18   3.82538568593569E-03   3.82538568593569E-03  -4.05287395631838E-16   1.00000000000000E+00
      1.00000000000000E+00   0.00000000000000E+00   0.00000000000000E+00   0.00000000000000E+00   0.00000000000000E+00
      0.00000000000000E+00   8.64731761816610E-16
      6.68711111111111E-01
      0.00000000000000E+00   0.00000000000000E+00   0.00000000000000E+00   0.00000000000000E+00  -3.70503782680050E-18
     -1.58298249063153E-03  -1.58298249063154E-03   2.49081696896539E-17   0.00000000000000E+00   0.00000000000000E+00
      0.00000000000000E+00   0.00000000000000E+00  -1.14295907146569E-18  -2.38774614320208E-03  -2.38774614320208E-03
     -4.69707490282259E-16   2.00613333333333E+00   2.00613333333333E+00   0.00000000000000E+00   0.00000000000000E+00
      1.61916082490242E-18   3.97072863383361E-03   3.97072863383361E-03  -3.92221043355538E-16   1.00000000000000E+00
      1.00000000000000E+00   0.00000000000000E+00   0.00000000000000E+00   0.00000000000000E+00   0.00000000000000E+00
      0.00000000000000E+00   8.37020363948143E-16
      6.93711111111111E-01
      0.00000000000000E+00   0.00000000000000E+00   0.00000000000000E+00   0.00000000000000E+00  -3.82649056319589E-18
     -1.63856308875500E-03  -1.63856308875500E-03   2.48598899723360E-17   0.00000000000000E+00   0.00000000000000E+00
      0.00000000000000E+00   0.00000000000000E+00  -1.18603288294164E-18  -2.47730123491970E-03  -2.47730123491970E-03
     -4.55022831021868E-16   2.08113333333333E+00   2.08113333333333E+00   0.00000000000000E+00   0.00000000000000E+00
      1.69444754407591E-18   4.11586432367470E-03   4.11586432367470E-03  -3.79162596667064E-16   1.00000000000000E+00
      1.00000000000000E+00   0.00000000000000E+00   0.00000000000000E+00   0.00000000000000E+00   0.00000000000000E+00
      0.00000000000000E+00   8.09325537716595E-16
      7.18711111111111E-01
      0.00000000000000E+00   0.00000000000000E+00   0.00000000000000E+00   0.00000000000000E+00  -3.94687085296173E-18
     -1.69390439895477E-03  -1.69390439895477E-03   2.48118464445764E-17   0.00000000000000E+00   0.00000000000000E+00
      0.00000000000000E+00   0.00000000000000E+00  -1.22919860033376E-18  -2.56688885586100E-03  -2.56688885586100E-03
     -4.40346824646311E-16   2.15613333333333E+00   2.15613333333333E+00   0.00000000000000E+00   0.00000000000000E+00
      1.77091850001390E-18   4.26079325481576E-03   4.26079325481576E-03  -3.66111840876357E-16   1.00000000000000E+00
      1.00000000000000E+00   0.00000000000000E+00   0.00000000000000E+00   0.00000000000000E+00   0.00000000000000E+00
      0.00000000000000E+00   7.81646819078094E-16
      7.43711111111111E-01
      0.00000000000000E+00   0.00000000000000E+00   0.00000000000000E+00   0.00000000000000E+00  -4.06619081997725E-18
     -1.74900712592325E-03  -1.74900712592326E-03   2.47640383635801E-17   0.00000000000000E+00   0.00000000000000E+00
      0.00000000000000E+00   0.00000000000000E+00  -1.27245643984703E-18  -2.65650867971012E-03  -2.65650867971012E-03
     -4.25679256595363E-16   2.23113333333333E+00   2.23113333333333E+00   0.00000000000000E+00   0.00000000000000E+00
      1.84851583705615E-18   4.40551580563338E-03   4.40551580563338E-03  -3.53068592196021E-16   1.00000000000000E+00
      1.00000000000000E+00   0.00000000000000E+00   0.00000000000000E+00   0.00000000000000E+00   0.00000000000000E+00
      0.00000000000000E+00   7.53983810427807E-16
      7.68711111111111E-01
      0.00000000000000E+00   0.00000000000000E+00   0.00000000000000E+00   0.00000000000000E+00  -4.18446229184530E-18
     -1.80387190589521E-03  -1.80387190589521E-03   2.47164650532718E-17   0.00000000000000E+00   0.00000000000000E+00
      0.00000000000000E+00   0.00000000000000E+00  -1.31580637344948E-18  -2.74616034883866E-03  -2.74616034883866E-03
     -4.11019944161422E-16   2.30613333333333E+00   2.30613333333333E+00   0.00000000000000E+00   0.00000000000000E+00
      1.92718278037067E-18   4.55003225473387E-03   4.55003225473387E-03  -3.40032694397784E-16   1.00000000000000E+00
      1.00000000000000E+00   0.00000000000000E+00   0.00000000000000E+00   0.00000000000000E+00   0.00000000000000E+00
      0.00000000000000E+00   7.26336173505935E-16
      7.93711111111111E-01
      0.00000000000000E+00   0.00000000000000E+00   0.00000000000000E+00   0.00000000000000E+00  -4.30169682536733E-18
     -1.85849931720451E-03  -1.85849931720452E-03   2.46691258939956E-17   0.00000000000000E+00   0.00000000000000E+00
      0.00000000000000E+00   0.00000000000000E+00  -1.35924815797449E-18  -2.83584348071154E-03  -2.83584348071154E-03
     -3.96368733112292E-16   2.38113333333333E+00   2.38113333333333E+00   0.00000000000000E+00   0.00000000000000E+00
      2.00686387146029E-18   4.69434279791606E-03   4.69434279791606E-03  -3.27004015935805E-16   1.00000000000000E+00
      1.00000000000000E+00   0.00000000000000E+00   0.00000000000000E+00   0.00000000000000E+00   0.00000000000000E+00
      0.00000000000000E+00   6.98703623154104E-16
      8.18711111111112E-01
      0.00000000000000E+00   0.00000000000000E+00   0.00000000000000E+00   0.00000000000000E+00  -4.41790572878452E-18
     -1.91288988949392E-03  -1.91288988949392E-03   2.46220203141777E-17   0.00000000000000E+00   0.00000000000000E+00
      0.00000000000000E+00   0.00000000000000E+00  -1.40278135959441E-18  -2.92555767444733E-03  -2.92555767444734E-03
     -3.81725495003088E-16   2.45613333333333E+00   2.45613333333333E+00   0.00000000000000E+00   0.00000000000000E+00
      2.08750515884919E-18   4.83844756394125E-03   4.83844756394125E-03  -3.13982447470761E-16   1.00000000000000E+00
      1.00000000000000E+00   0.00000000000000E+00   0.00000000000000E+00   0.00000000000000E+00   0.00000000000000E+00
      0.00000000000000E+00   6.71085922159670E-16
      8.43711111111112E-01
      0.00000000000000E+00   0.00000000000000E+00   0.00000000000000E+00   0.00000000000000E+00  -4.53310008160254E-18
     -1.96704411193338E-03  -1.96704411193338E-03   2.45751477834837E-17   0.00000000000000E+00   0.00000000000000E+00
      0.00000000000000E+00   0.00000000000000E+00  -1.44640537303048E-18  -3.01530251387682E-03  -3.01530251387682E-03
     -3.67090124379254E-16   2.53113333333333E+00   2.53113333333333E+00   0.00000000000000E+00   0.00000000000000E+00
      2.16905434255415E-18   4.98234662581020E-03   4.98234662581020E-03  -3.00967899537740E-16   1.00000000000000E+00
      1.00000000000000E+00   0.00000000000000E+00   0.00000000000000E+00   0.00000000000000E+00   0.00000000000000E+00
      0.00000000000000E+00   6.43482876133511E-16
      8.68711111111112E-01
      0.00000000000000E+00   0.00000000000000E+00   0.00000000000000E+00   0.00000000000000E+00  -4.64729075197176E-18