DF-ISE text

Info {
  version   = 1.0
  type      = xyplot
  datasets  = [
    "time"
    "substrate OuterVoltage" "substrate InnerVoltage" "substrate QuasiFermiPotential" "substrate DisplacementCurrent" "substrate eCurrent"
    "substrate hCurrent" "substrate TotalCurrent" "substrate Charge" "source OuterVoltage" "source InnerVoltage"
    "source QuasiFermiPotential" "source DisplacementCurrent" "source eCurrent" "source hCurrent" "source TotalCurrent"
    "source Charge" "drain OuterVoltage" "drain InnerVoltage" "drain QuasiFermiPotential" "drain DisplacementCurrent"
    "drain eCurrent" "drain hCurrent" "drain TotalCurrent" "drain Charge" "gate OuterVoltage"
    "gate InnerVoltage" "gate QuasiFermiPotential" "gate DisplacementCurrent" "gate eCurrent" "gate hCurrent"
    "gate TotalCurrent" "gate Charge" ]
  functions = [
    Time
    OuterVoltage InnerVoltage QuasiFermiPotential DisplacementCurrent eCurrent
    hCurrent TotalCurrent Charge OuterVoltage InnerVoltage
    QuasiFermiPotential DisplacementCurrent eCurrent hCurrent TotalCurrent
    Charge OuterVoltage InnerVoltage QuasiFermiPotential DisplacementCurrent
    eCurrent hCurrent TotalCurrent Charge OuterVoltage
    InnerVoltage QuasiFermiPotential DisplacementCurrent eCurrent hCurrent
    TotalCurrent Charge ]
}

Data {
      0.00000000000000E+00
      0.00000000000000E+00   0.00000000000000E+00   0.00000000000000E+00   0.00000000000000E+00  -8.79280126959698E-35
      2.11849991714634E-17   2.11849991714634E-17   2.62944992996605E-17   0.00000000000000E+00   0.00000000000000E+00
      0.00000000000000E+00   0.00000000000000E+00   4.90997412242282E-34   3.93956651200616E-17   3.93956651200616E-17
     -3.13752034112971E-16   0.00000000000000E+00   0.00000000000000E+00   0.00000000000000E+00   0.00000000000000E+00
     -1.91412727125543E-34  -6.05806642915251E-17  -6.05806642915251E-17  -2.71912328887736E-16   0.00000000000000E+00
      0.00000000000000E+00   0.00000000000000E+00   0.00000000000000E+00   0.00000000000000E+00   0.00000000000000E+00
      0.00000000000000E+00   5.59369863701046E-16
      1.00000000000000E-02
      0.00000000000000E+00   0.00000000000000E+00   0.00000000000000E+00   0.00000000000000E+00  -2.13759893414449E-20
     -2.52166116527600E-05  -2.52166116527601E-05   2.62722547091430E-17   0.00000000000000E+00   0.00000000000000E+00
      0.00000000000000E+00   0.00000000000000E+00  -1.71538927293300E-20  -3.58193000291132E-05  -3.58193000291132E-05
     -3.07633245329817E-16   3.00000000000000E-02   3.00000000000000E-02   0.00000000000000E+00   0.00000000000000E+00
      2.89807260671555E-20   6.10359116818733E-05   6.10359116818733E-05  -2.66473939627078E-16   0.00000000000000E+00
      0.00000000000000E+00   0.00000000000000E+00   0.00000000000000E+00   0.00000000000000E+00   0.00000000000000E+00
      0.00000000000000E+00   5.47834930247753E-16
      2.36666666666667E-02
      0.00000000000000E+00   0.00000000000000E+00   0.00000000000000E+00   0.00000000000000E+00  -6.17687385000824E-20
     -5.96023307638789E-05  -5.96023307638790E-05   2.62419284590844E-17   0.00000000000000E+00   0.00000000000000E+00
      0.00000000000000E+00   0.00000000000000E+00  -4.07723891953152E-20  -8.47490213800189E-05  -8.47490213800189E-05
     -2.99283443450590E-16   7.10000000000000E-02   7.10000000000000E-02   0.00000000000000E+00   0.00000000000000E+00
      6.77587688178238E-20   1.44351352143898E-04   1.44351352143898E-04  -2.59052461742593E-16   0.00000000000000E+00
      0.00000000000000E+00   0.00000000000000E+00   0.00000000000000E+00   0.00000000000000E+00   0.00000000000000E+00
      0.00000000000000E+00   5.32093976734099E-16
      4.37111111111111E-02
      0.00000000000000E+00   0.00000000000000E+00   0.00000000000000E+00   0.00000000000000E+00  -1.49626917029510E-19
     -1.09865175538127E-04  -1.09865175538127E-04   2.61976144137447E-17   0.00000000000000E+00   0.00000000000000E+00
      0.00000000000000E+00   0.00000000000000E+00  -7.56773491787382E-20  -1.56466139362645E-04  -1.56466139362645E-04
     -2.87062521572823E-16   1.31133333333333E-01   1.31133333333333E-01   0.00000000000000E+00   0.00000000000000E+00
      1.22583788299003E-19   2.66331314900772E-04   2.66331314900772E-04  -2.48189943612429E-16   0.00000000000000E+00
      0.00000000000000E+00   0.00000000000000E+00   0.00000000000000E+00   0.00000000000000E+00   0.00000000000000E+00
      0.00000000000000E+00   5.09054850771507E-16
      6.87111111111111E-02
      0.00000000000000E+00   0.00000000000000E+00   0.00000000000000E+00   0.00000000000000E+00  -3.06668678487823E-19
     -1.72263861368017E-04  -1.72263861368018E-04   2.61426266271097E-17   0.00000000000000E+00   0.00000000000000E+00
      0.00000000000000E+00   0.00000000000000E+00  -1.19450636894895E-19  -2.45841873804912E-04  -2.45841873804912E-04
     -2.71861167847313E-16   2.06133333333333E-01   2.06133333333333E-01   0.00000000000000E+00   0.00000000000000E+00
      1.87261631212547E-19   4.18105735172929E-04   4.18105735172930E-04  -2.34677801921098E-16   0.00000000000000E+00
      0.00000000000000E+00   0.00000000000000E+00   0.00000000000000E+00   0.00000000000000E+00   0.00000000000000E+00
      0.00000000000000E+00   4.80396343141301E-16
      9.37111111111111E-02
      0.00000000000000E+00   0.00000000000000E+00   0.00000000000000E+00   0.00000000000000E+00  -4.93744003010415E-19
     -2.34336506008604E-04  -2.34336506008605E-04   2.60879555000854E-17   0.00000000000000E+00   0.00000000000000E+00
      0.00000000000000E+00   0.00000000000000E+00  -1.63264073060763E-19  -3.35146177537291E-04  -3.35146177537291E-04
     -2.56703160732293E-16   2.81133333333333E-01   2.81133333333333E-01   0.00000000000000E+00   0.00000000000000E+00
      2.47986825136795E-19   5.69482683545895E-04   5.69482683545895E-04  -2.21203693037441E-16   0.00000000000000E+00
      0.00000000000000E+00   0.00000000000000E+00   0.00000000000000E+00   0.00000000000000E+00   0.00000000000000E+00
      0.00000000000000E+00   4.51818898269648E-16
      1.18711111111111E-01
      0.00000000000000E+00   0.00000000000000E+00   0.00000000000000E+00   0.00000000000000E+00  -6.80973023169749E-19
     -2.96083988642723E-04  -2.96083988642724E-04   2.60336005875340E-17   0.00000000000000E+00   0.00000000000000E+00
      0.00000000000000E+00   0.00000000000000E+00  -2.06937668500463E-19  -4.24389042693198E-04  -4.24389042693198E-04
     -2.41586073898916E-16   3.56133333333333E-01   3.56133333333333E-01   0.00000000000000E+00   0.00000000000000E+00
      3.05213338816032E-19   7.20473031335921E-04   7.20473031335921E-04  -2.07765492691316E-16   0.00000000000000E+00
      0.00000000000000E+00   0.00000000000000E+00   0.00000000000000E+00   0.00000000000000E+00   0.00000000000000E+00
      0.00000000000000E+00   4.23317966002697E-16
      1.43711111111111E-01
      0.00000000000000E+00   0.00000000000000E+00   0.00000000000000E+00   0.00000000000000E+00  -8.54945109932370E-19
     -3.57510146685753E-04  -3.57510146685754E-04   2.59795586418959E-17   0.00000000000000E+00   0.00000000000000E+00
      0.00000000000000E+00   0.00000000000000E+00  -2.50366688417243E-19  -5.13581204466992E-04  -5.13581204466992E-04
     -2.26507308942453E-16   4.31133333333333E-01   4.31133333333333E-01   0.00000000000000E+00   0.00000000000000E+00
      3.59544611061514E-19   8.71091351152745E-04   8.71091351152745E-04  -1.94360921224177E-16   0.00000000000000E+00
      0.00000000000000E+00   0.00000000000000E+00   0.00000000000000E+00   0.00000000000000E+00   0.00000000000000E+00
      0.00000000000000E+00   3.94888671524733E-16
      1.68711111111111E-01
      0.00000000000000E+00   0.00000000000000E+00   0.00000000000000E+00   0.00000000000000E+00  -1.01619164573695E-18
     -4.18620606799856E-04  -4.18620606799857E-04   2.59258247095230E-17   0.00000000000000E+00   0.00000000000000E+00
      0.00000000000000E+00   0.00000000000000E+00  -2.93515125403962E-19  -6.02733679389560E-04  -6.02733679389561E-04
     -2.11464175058240E-16   5.06133333333333E-01   5.06133333333333E-01   0.00000000000000E+00   0.00000000000000E+00
      4.11724967198021E-19   1.02135428618942E-03   1.02135428618942E-03  -1.80987615716939E-16   0.00000000000000E+00
      0.00000000000000E+00   0.00000000000000E+00   0.00000000000000E+00   0.00000000000000E+00   0.00000000000000E+00
      0.00000000000000E+00   3.66525966065657E-16
      1.93711111111111E-01
      0.00000000000000E+00   0.00000000000000E+00   0.00000000000000E+00   0.00000000000000E+00  -1.16898719082061E-18
     -4.79421966686490E-04  -4.79421966686491E-04   2.58723928896643E-17   0.00000000000000E+00   0.00000000000000E+00
      0.00000000000000E+00   0.00000000000000E+00  -3.36394302968999E-19  -6.91857281874973E-04  -6.91857281874973E-04
     -1.96453979084785E-16   5.81133333333333E-01   5.81133333333333E-01   0.00000000000000E+00   0.00000000000000E+00
      4.62550473250036E-19   1.17127924856146E-03   1.17127924856146E-03  -1.67643210604772E-16   0.00000000000000E+00
      0.00000000000000E+00   0.00000000000000E+00   0.00000000000000E+00   0.00000000000000E+00   0.00000000000000E+00
      0.00000000000000E+00   3.38224796799892E-16
      2.18711111111111E-01
      0.00000000000000E+00   0.00000000000000E+00   0.00000000000000E+00   0.00000000000000E+00  -1.31674083330029E-18
     -5.39921201834734E-04  -5.39921201834736E-04   2.58192568828617E-17   0.00000000000000E+00   0.00000000000000E+00
      0.00000000000000E+00   0.00000000000000E+00  -3.79041349455697E-19  -7.80962213403034E-04  -7.80962213403034E-04
     -1.81474104959736E-16   6.56133333333333E-01   6.56133333333333E-01   0.00000000000000E+00   0.00000000000000E+00
      5.12759868819337E-19   1.32088341523777E-03   1.32088341523777E-03  -1.54325408500261E-16   0.00000000000000E+00
      0.00000000000000E+00   0.00000000000000E+00   0.00000000000000E+00   0.00000000000000E+00   0.00000000000000E+00
      0.00000000000000E+00   3.09980256577136E-16
      2.43711111111111E-01
      0.00000000000000E+00   0.00000000000000E+00   0.00000000000000E+00   0.00000000000000E+00  -1.46140319981030E-18
     -6.00125251604345E-04  -6.00125251604347E-04   2.57664103732855E-17   0.00000000000000E+00   0.00000000000000E+00
      0.00000000000000E+00   0.00000000000000E+00  -4.21503656953492E-19  -8.70057772574291E-04  -8.70057772574292E-04
     -1.66522073073554E-16   7.31133333333333E-01   7.31133333333333E-01   0.00000000000000E+00   0.00000000000000E+00
      5.62975777849641E-19   1.47018302417864E-03   1.47018302417864E-03  -1.41032033009647E-16   0.00000000000000E+00
      0.00000000000000E+00   0.00000000000000E+00   0.00000000000000E+00   0.00000000000000E+00   0.00000000000000E+00
      0.00000000000000E+00   2.81787695709916E-16
      2.68711111111111E-01
      0.00000000000000E+00   0.00000000000000E+00   0.00000000000000E+00   0.00000000000000E+00  -1.60394356953405E-18
     -6.60040750315613E-04  -6.60040750315614E-04   2.57138472794366E-17   0.00000000000000E+00   0.00000000000000E+00
      0.00000000000000E+00   0.00000000000000E+00  -4.63829385576903E-19  -9.59152191647572E-04  -9.59152191647572E-04
     -1.51595578124977E-16   8.06133333333333E-01   8.06133333333333E-01   0.00000000000000E+00   0.00000000000000E+00
      6.13692389537079E-19   1.61919294196319E-03   1.61919294196319E-03  -1.27761062303071E-16   0.00000000000000E+00
      0.00000000000000E+00   0.00000000000000E+00   0.00000000000000E+00   0.00000000000000E+00   0.00000000000000E+00
      0.00000000000000E+00   2.53642793148612E-16
      2.93711111111111E-01
      0.00000000000000E+00   0.00000000000000E+00   0.00000000000000E+00   0.00000000000000E+00  -1.74481220396591E-18
     -7.19673870050952E-04  -7.19673870050953E-04   2.56615619023036E-17   0.00000000000000E+00   0.00000000000000E+00
      0.00000000000000E+00   0.00000000000000E+00  -5.06062499548425E-19  -1.04825258090521E-03  -1.04825258090521E-03
     -1.36692508331124E-16   8.81133333333333E-01   8.81133333333333E-01   0.00000000000000E+00   0.00000000000000E+00
      6.65286802675428E-19   1.76792645095616E-03   1.76792645095616E-03  -1.14510646018418E-16   0.00000000000000E+00
      0.00000000000000E+00   0.00000000000000E+00   0.00000000000000E+00   0.00000000000000E+00   0.00000000000000E+00
      0.00000000000000E+00   2.25541592447237E-16
      3.18711111111111E-01
      0.00000000000000E+00   0.00000000000000E+00   0.00000000000000E+00   0.00000000000000E+00  -1.88421465445096E-18
     -7.79030244282380E-04  -7.79030244282382E-04   2.56095489990511E-17   0.00000000000000E+00   0.00000000000000E+00
      0.00000000000000E+00   0.00000000000000E+00  -5.48240757184186E-19  -1.13736495327199E-03  -1.13736495327199E-03
     -1.21810950177023E-16   9.56133333333333E-01   9.56133333333333E-01   0.00000000000000E+00   0.00000000000000E+00
      7.18038076961738E-19   1.91639519755437E-03   1.91639519755437E-03  -1.01279109841264E-16   0.00000000000000E+00
      0.00000000000000E+00   0.00000000000000E+00   0.00000000000000E+00   0.00000000000000E+00   0.00000000000000E+00
      0.00000000000000E+00   1.97480511019235E-16
      3.43711111111111E-01
      0.00000000000000E+00   0.00000000000000E+00   0.00000000000000E+00   0.00000000000000E+00  -2.02224855938883E-18
     -8.38114946221874E-04  -8.38114946221876E-04   2.55578038101969E-17   0.00000000000000E+00   0.00000000000000E+00
      0.00000000000000E+00   0.00000000000000E+00  -5.90395402383204E-19  -1.22649429968742E-03  -1.22649429968742E-03
     -1.06949183769893E-16   1.03113333333333E+00   1.03113333333333E+00   0.00000000000000E+00   0.00000000000000E+00
      7.72146433553911E-19   2.06460924590929E-03   2.06460924590929E-03  -8.80649509504820E-17   0.00000000000000E+00
      0.00000000000000E+00   0.00000000000000E+00   0.00000000000000E+00   0.00000000000000E+00   0.00000000000000E+00
      0.00000000000000E+00   1.69456330910178E-16
      3.68711111111111E-01
      0.00000000000000E+00   0.00000000000000E+00   0.00000000000000E+00   0.00000000000000E+00  -2.15896583700037E-18
     -8.96932501801953E-04  -8.96932501801955E-04   2.55063220509418E-17   0.00000000000000E+00   0.00000000000000E+00
      0.00000000000000E+00   0.00000000000000E+00  -6.32551701723109E-19  -1.31564469348060E-03  -1.31564469348061E-03
     -9.21056720650395E-17   1.10613333333333E+00   1.10613333333333E+00   0.00000000000000E+00   0.00000000000000E+00
      8.27749887746243E-19   2.21257719528256E-03   2.21257719528256E-03  -7.48668285342334E-17   0.00000000000000E+00
      0.00000000000000E+00   0.00000000000000E+00   0.00000000000000E+00   0.00000000000000E+00   0.00000000000000E+00
      0.00000000000000E+00   1.41466178548331E-16
      3.93711111111111E-01
      0.00000000000000E+00   0.00000000000000E+00   0.00000000000000E+00   0.00000000000000E+00  -2.29439933058290E-18
     -9.55486922533254E-04  -9.55486922533256E-04   2.54550998889014E-17   0.00000000000000E+00   0.00000000000000E+00
      0.00000000000000E+00   0.00000000000000E+00  -6.74729807196069E-19  -1.40481940515425E-03  -1.40481940515425E-03
     -7.72790469572685E-17   1.18113333333333E+00   1.18113333333333E+00   0.00000000000000E+00   0.00000000000000E+00
      8.84937848226033E-19   2.36030632768751E-03   2.36030632768751E-03  -6.16835513951339E-17   0.00000000000000E+00
      0.00000000000000E+00   0.00000000000000E+00   0.00000000000000E+00   0.00000000000000E+00   0.00000000000000E+00
      0.00000000000000E+00   1.13507498463501E-16
      4.18711111111111E-01
      0.00000000000000E+00   0.00000000000000E+00   0.00000000000000E+00   0.00000000000000E+00  -2.42857376338447E-18
     -1.01378174843423E-03  -1.01378174843423E-03   2.54041338991654E-17   0.00000000000000E+00   0.00000000000000E+00
      0.00000000000000E+00   0.00000000000000E+00  -7.16945666940484E-19  -1.49402101974627E-03  -1.49402101974627E-03
     -6.24680937730494E-17   1.25613333333333E+00   1.25613333333333E+00   0.00000000000000E+00   0.00000000000000E+00
      9.43761956211875E-19   2.50780276818049E-03   2.50780276818050E-03  -4.85140649294125E-17   0.00000000000000E+00
      0.00000000000000E+00   0.00000000000000E+00   0.00000000000000E+00   0.00000000000000E+00   0.00000000000000E+00
      0.00000000000000E+00   8.55780248032961E-17
      4.43711111111111E-01
      0.00000000000000E+00   0.00000000000000E+00   0.00000000000000E+00   0.00000000000000E+00  -2.56151012396500E-18
     -1.07182009434732E-03  -1.07182009434733E-03   2.53534210622909E-17   0.00000000000000E+00   0.00000000000000E+00
      0.00000000000000E+00   0.00000000000000E+00  -7.59211849751790E-19  -1.58325154002888E-03  -1.58325154002888E-03
     -4.76717364097654E-17   1.33113333333333E+00   1.33113333333333E+00   0.00000000000000E+00   0.00000000000000E+00
      1.00424465437986E-18   2.65507163437620E-03   2.65507163437620E-03  -3.53574382009609E-17   0.00000000000000E+00
      0.00000000000000E+00   0.00000000000000E+00   0.00000000000000E+00   0.00000000000000E+00   0.00000000000000E+00
      0.00000000000000E+00   5.76757535484354E-17
      4.68711111111111E-01
      0.00000000000000E+00   0.00000000000000E+00   0.00000000000000E+00   0.00000000000000E+00  -2.69322741635418E-18
     -1.12960469930638E-03  -1.12960469930638E-03   2.53029600531114E-17   0.00000000000000E+00   0.00000000000000E+00
      0.00000000000000E+00   0.00000000000000E+00  -8.01538129829359E-19  -1.67251224474698E-03  -1.67251224474699E-03
     -3.28890937245838E-17   1.40613333333333E+00   1.40613333333333E+00   0.00000000000000E+00   0.00000000000000E+00
      1.06638622083645E-18   2.80211694405336E-03   2.80211694405337E-03  -2.22127868280500E-17   0.00000000000000E+00
      0.00000000000000E+00   0.00000000000000E+00   0.00000000000000E+00   0.00000000000000E+00   0.00000000000000E+00
      0.00000000000000E+00   2.97989204995225E-17
      4.93711111111111E-01
      0.00000000000000E+00   0.00000000000000E+00   0.00000000000000E+00   0.00000000000000E+00  -2.82374337121960E-18
     -1.18713797013216E-03  -1.18713797013217E-03   2.52527480717276E-17   0.00000000000000E+00   0.00000000000000E+00
      0.00000000000000E+00   0.00000000000000E+00  -8.43932274783057E-19  -1.76180424339767E-03  -1.76180424339767E-03
     -1.81193035583145E-17   1.48113333333333E+00   1.48113333333333E+00   0.00000000000000E+00   0.00000000000000E+00
      1.13016954237292E-18   2.94894221352984E-03   2.94894221352984E-03  -9.07939419852432E-18   0.00000000000000E+00
      0.00000000000000E+00   0.00000000000000E+00   0.00000000000000E+00   0.00000000000000E+00   0.00000000000000E+00
      0.00000000000000E+00   1.94594968511140E-18
      5.18711111111111E-01
      0.00000000000000E+00   0.00000000000000E+00   0.00000000000000E+00   0.00000000000000E+00  -2.95307475176949E-18
     -1.24442201694736E-03  -1.24442201694736E-03   2.52027843313682E-17   0.00000000000000E+00   0.00000000000000E+00
      0.00000000000000E+00   0.00000000000000E+00  -8.86400292066672E-19  -1.85112812535602E-03  -1.85112812535603E-03
     -3.36169168512968E-18   1.55613333333333E+00   1.55613333333333E+00   0.00000000000000E+00   0.00000000000000E+00
      1.19556482960551E-18   3.09555014230338E-03   3.09555014230338E-03   4.04343518250571E-18   0.00000000000000E+00
      0.00000000000000E+00   0.00000000000000E+00   0.00000000000000E+00   0.00000000000000E+00   0.00000000000000E+00
      0.00000000000000E+00  -2.58845278287459E-17
      5.43711111111111E-01
      0.00000000000000E+00   0.00000000000000E+00   0.00000000000000E+00   0.00000000000000E+00  -3.08123752200609E-18
     -1.30145869050795E-03  -1.30145869050796E-03   2.51530649572614E-17   0.00000000000000E+00   0.00000000000000E+00
      0.00000000000000E+00   0.00000000000000E+00  -9.28947127797757E-19  -1.94048475726606E-03  -1.94048475726606E-03
      1.13844879917494E-17   1.63113333333333E+00   1.63113333333333E+00   0.00000000000000E+00   0.00000000000000E+00
      1.26253187361722E-18   3.24194344777401E-03   3.24194344777401E-03   1.71561881353013E-17   0.00000000000000E+00
      0.00000000000000E+00   0.00000000000000E+00   0.00000000000000E+00   0.00000000000000E+00   0.00000000000000E+00
      0.00000000000000E+00  -5.36937410843118E-17
      5.68711111111111E-01
      0.00000000000000E+00   0.00000000000000E+00   0.00000000000000E+00   0.00000000000000E+00  -3.20824694878870E-18
     -1.35824961308450E-03  -1.35824961308451E-03   2.51035884078273E-17   0.00000000000000E+00   0.00000000000000E+00
      0.00000000000000E+00   0.00000000000000E+00  -9.71576551560919E-19  -2.02987452277239E-03  -2.02987452277239E-03
      2.61198071004078E-17   1.70613333333333E+00   1.70613333333333E+00   0.00000000000000E+00   0.00000000000000E+00
      1.33102370332465E-18   3.38812413585690E-03   3.38812413585690E-03   3.02593460487484E-17   0.00000000000000E+00
      0.00000000000000E+00   0.00000000000000E+00   0.00000000000000E+00   0.00000000000000E+00   0.00000000000000E+00
      0.00000000000000E+00  -8.14827415569827E-17
      5.93711111111111E-01
      0.00000000000000E+00   0.00000000000000E+00   0.00000000000000E+00   0.00000000000000E+00  -3.33411770278139E-18
     -1.41479621698647E-03  -1.41479621698647E-03   2.50543532828056E-17   0.00000000000000E+00   0.00000000000000E+00
      0.00000000000000E+00   0.00000000000000E+00  -1.01429145857381E-18  -2.11929756323820E-03  -2.11929756323820E-03
      4.08447649958830E-17   1.78113333333333E+00   1.78113333333333E+00   0.00000000000000E+00   0.00000000000000E+00
      1.40098842989524E-18   3.53409378022467E-03   3.53409378022467E-03   4.33533453095899E-17   0.00000000000000E+00
      0.00000000000000E+00   0.00000000000000E+00   0.00000000000000E+00   0.00000000000000E+00   0.00000000000000E+00
      0.00000000000000E+00  -1.09252463588278E-16
      6.18711111111111E-01
      0.00000000000000E+00   0.00000000000000E+00   0.00000000000000E+00   0.00000000000000E+00  -3.45886391163647E-18
     -1.47109976483134E-03  -1.47109976483135E-03   2.50053583164232E-17   0.00000000000000E+00   0.00000000000000E+00
      0.00000000000000E+00   0.00000000000000E+00  -1.05709406877668E-18  -2.20875389357520E-03  -2.20875389357520E-03
      5.55598002859456E-17   1.85613333333333E+00   1.85613333333333E+00   0.00000000000000E+00   0.00000000000000E+00
      1.47237076703091E-18   3.67985365840655E-03   3.67985365840655E-03   5.64385665158420E-17   0.00000000000000E+00
      0.00000000000000E+00   0.00000000000000E+00   0.00000000000000E+00   0.00000000000000E+00   0.00000000000000E+00
      0.00000000000000E+00  -1.37003725118209E-16
      6.43711111111111E-01
      0.00000000000000E+00   0.00000000000000E+00   0.00000000000000E+00   0.00000000000000E+00  -3.58249921604587E-18
     -1.52716137222101E-03  -1.52716137222101E-03   2.49566023787133E-17   0.00000000000000E+00   0.00000000000000E+00
      0.00000000000000E+00   0.00000000000000E+00  -1.09998604825121E-18  -2.29824342519311E-03  -2.29824342519311E-03
      7.02652963619839E-17   1.93113333333333E+00   1.93113333333333E+00   0.00000000000000E+00   0.00000000000000E+00
      1.54511332778319E-18   3.82540479741412E-03   3.82540479741412E-03   6.95153413766446E-17   0.00000000000000E+00
      0.00000000000000E+00   0.00000000000000E+00   0.00000000000000E+00   0.00000000000000E+00   0.00000000000000E+00
      0.00000000000000E+00  -1.64737240117345E-16
      6.68711111111111E-01
      0.00000000000000E+00   0.00000000000000E+00   0.00000000000000E+00   0.00000000000000E+00  -3.70503681871488E-18
     -1.58298202780513E-03  -1.58298202780513E-03   2.49080844571100E-17   0.00000000000000E+00   0.00000000000000E+00
      0.00000000000000E+00   0.00000000000000E+00  -1.14296860420775E-18  -2.38776598678368E-03  -2.38776598678368E-03
      8.49615871346686E-17   2.00613333333333E+00   2.00613333333333E+00   0.00000000000000E+00   0.00000000000000E+00
      1.61915761787898E-18   3.97074801458880E-03   3.97074801458881E-03   8.25839582075004E-17   0.00000000000000E+00
      0.00000000000000E+00   0.00000000000000E+00   0.00000000000000E+00   0.00000000000000E+00   0.00000000000000E+00
      0.00000000000000E+00  -1.92453629799279E-16
      6.93711111111111E-01
      0.00000000000000E+00   0.00000000000000E+00   0.00000000000000E+00   0.00000000000000E+00  -3.82648952688806E-18
     -1.63856261078133E-03  -1.63856261078133E-03   2.48598036430985E-17   0.00000000000000E+00   0.00000000000000E+00
      0.00000000000000E+00   0.00000000000000E+00  -1.18604255936979E-18  -2.47732134211448E-03  -2.47732134211448E-03
      9.96489622331441E-17   2.08113333333333E+00   2.08113333333333E+00   0.00000000000000E+00   0.00000000000000E+00
      1.69444480484050E-18   4.11588395289581E-03   4.11588395289581E-03   9.56446666261379E-17   0.00000000000000E+00
      0.00000000000000E+00   0.00000000000000E+00   0.00000000000000E+00   0.00000000000000E+00   0.00000000000000E+00
      0.00000000000000E+00  -2.20153432502382E-16
      7.18711111111111E-01
      0.00000000000000E+00   0.00000000000000E+00   0.00000000000000E+00   0.00000000000000E+00  -3.94686978976483E-18
     -1.69390390633725E-03  -1.69390390633725E-03   2.48117591184810E-17   0.00000000000000E+00   0.00000000000000E+00
      0.00000000000000E+00   0.00000000000000E+00  -1.22920841005350E-18  -2.56690920397164E-03  -2.56690920397164E-03
      1.14327671633796E-16   2.15613333333333E+00   2.15613333333333E+00   0.00000000000000E+00   0.00000000000000E+00
      1.77091632618107E-18   4.26081311030888E-03   4.26081311030889E-03   1.08697681719208E-16   0.00000000000000E+00
      0.00000000000000E+00   0.00000000000000E+00   0.00000000000000E+00   0.00000000000000E+00   0.00000000000000E+00
      0.00000000000000E+00  -2.47837112471487E-16
      7.43711111111111E-01
      0.00000000000000E+00   0.00000000000000E+00   0.00000000000000E+00   0.00000000000000E+00  -4.06618973134942E-18
     -1.74900661923242E-03  -1.74900661923243E-03   2.47639501432907E-17   0.00000000000000E+00   0.00000000000000E+00
      0.00000000000000E+00   0.00000000000000E+00  -1.27246637188947E-18  -2.65652924507853E-03  -2.65652924507854E-03
      1.28997929785237E-16   2.23113333333333E+00   2.23113333333333E+00   0.00000000000000E+00   0.00000000000000E+00
      1.84851432644173E-18   4.40553586431096E-03   4.40553586431096E-03   1.21743187699032E-16   0.00000000000000E+00
      0.00000000000000E+00   0.00000000000000E+00   0.00000000000000E+00   0.00000000000000E+00   0.00000000000000E+00
      0.00000000000000E+00  -2.75505067627562E-16
      7.68711111111111E-01
      0.00000000000000E+00   0.00000000000000E+00   0.00000000000000E+00   0.00000000000000E+00  -4.18446117932933E-18
     -1.80387138575085E-03  -1.80387138575085E-03   2.47163760452375E-17   0.00000000000000E+00   0.00000000000000E+00
      0.00000000000000E+00   0.00000000000000E+00  -1.31581641627196E-18  -2.74618110684576E-03  -2.74618110684576E-03
      1.43659919262351E-16   2.30613333333333E+00   2.30613333333333E+00   0.00000000000000E+00   0.00000000000000E+00
      1.92718203101836E-18   4.55005249259661E-03   4.55005249259661E-03   1.34781341131604E-16   0.00000000000000E+00
      0.00000000000000E+00   0.00000000000000E+00   0.00000000000000E+00   0.00000000000000E+00   0.00000000000000E+00
      0.00000000000000E+00  -3.03157636439192E-16
      7.93711111111111E-01
      0.00000000000000E+00   0.00000000000000E+00   0.00000000000000E+00   0.00000000000000E+00  -4.30169569042170E-18
     -1.85849878419756E-03  -1.85849878419756E-03   2.46690362125750E-17   0.00000000000000E+00   0.00000000000000E+00
      0.00000000000000E+00   0.00000000000000E+00  -1.35925829952074E-18  -2.83586440590126E-03  -2.83586440590126E-03
      1.58313793967972E-16   2.38113333333333E+00   2.38113333333333E+00   0.00000000000000E+00   0.00000000000000E+00
      2.00686398209564E-18   4.69436319009882E-03   4.69436319009883E-03   1.47812273705042E-16   0.00000000000000E+00
      0.00000000000000E+00   0.00000000000000E+00   0.00000000000000E+00   0.00000000000000E+00   0.00000000000000E+00
      0.00000000000000E+00  -3.30795103885587E-16
      8.18711111111112E-01
      0.00000000000000E+00   0.00000000000000E+00   0.00000000000000E+00   0.00000000000000E+00  -4.41790457299076E-18
     -1.91288934428288E-03  -1.91288934428289E-03   2.46219300781152E-17   0.00000000000000E+00   0.00000000000000E+00
      0.00000000000000E+00   0.00000000000000E+00  -1.40279158707691E-18  -2.92557874007656E-03  -2.92557874007657E-03
      1.72959682272730E-16   2.45613333333333E+00   2.45613333333333E+00   0.00000000000000E+00   0.00000000000000E+00
      2.08750622890795E-18   4.83846808435945E-03   4.83846808435945E-03   1.60836095090665E-16   0.00000000000000E+00
      0.00000000000000E+00   0.00000000000000E+00   0.00000000000000E+00   0.00000000000000E+00   0.00000000000000E+00
      0.00000000000000E+00  -3.58417707441508E-16
      8.43711111111112E-01
      0.00000000000000E+00   0.00000000000000E+00   0.00000000000000E+00   0.00000000000000E+00  -4.53309890664857E-18
     -1.96704355523749E-03  -1.96704355523750E-03   2.45750571157950E-17   0.00000000000000E+00   0.00000000000000E+00
      0.00000000000000E+00   0.00000000000000E+00  -1.44641567297962E-18  -3.01532369201842E-03  -3.01532369201842E-03
      1.87597689513532E-16   2.53113333333333E+00   2.53113333333333E+00   0.00000000000000E+00   0.00000000000000E+00
      2.16905647212775E-18   4.98236724725591E-03   4.98236724725592E-03   1.73852895050153E-16   0.00000000000000E+00
      0.00000000000000E+00   0.00000000000000E+00   0.00000000000000E+00   0.00000000000000E+00   0.00000000000000E+00
      0.00000000000000E+00  -3.86025641679481E-16
      8.68711111111112E-01
      0.00000000000000E+00   0.00000000000000E+00   0.00000000000000E+00   0.00000000000000E+00  -4.64728955963903E-18