DF-ISE text

Info {
  version   = 1.0
  type      = xyplot
  datasets  = [
    "time"
    "substrate OuterVoltage" "substrate InnerVoltage" "substrate QuasiFermiPotential" "substrate DisplacementCurrent" "substrate eCurrent"
    "substrate hCurrent" "substrate TotalCurrent" "substrate Charge" "source OuterVoltage" "source InnerVoltage"
    "source QuasiFermiPotential" "source DisplacementCurrent" "source eCurrent" "source hCurrent" "source TotalCurrent"
    "source Charge" "drain OuterVoltage" "drain InnerVoltage" "drain QuasiFermiPotential" "drain DisplacementCurrent"
    "drain eCurrent" "drain hCurrent" "drain TotalCurrent" "drain Charge" "gate OuterVoltage"
    "gate InnerVoltage" "gate QuasiFermiPotential" "gate DisplacementCurrent" "gate eCurrent" "gate hCurrent"
    "gate TotalCurrent" "gate Charge" ]
  functions = [
    Time
    OuterVoltage InnerVoltage QuasiFermiPotential DisplacementCurrent eCurrent
    hCurrent TotalCurrent Charge OuterVoltage InnerVoltage
    QuasiFermiPotential DisplacementCurrent eCurrent hCurrent TotalCurrent
    Charge OuterVoltage InnerVoltage QuasiFermiPotential DisplacementCurrent
    eCurrent hCurrent TotalCurrent Charge OuterVoltage
    InnerVoltage QuasiFermiPotential DisplacementCurrent eCurrent hCurrent
    TotalCurrent Charge ]
}

Data {
      0.00000000000000E+00
      0.00000000000000E+00   0.00000000000000E+00   0.00000000000000E+00   0.00000000000000E+00   8.07183697863766E-19
     -7.57147633138570E-28   8.07183697106619E-19  -5.90833956984040E-15   0.00000000000000E+00   0.00000000000000E+00
      0.00000000000000E+00   0.00000000000000E+00  -5.70431024124250E-19   2.88725538422271E-28  -5.70431023835525E-19
     -9.55554873175029E-16   0.00000000000000E+00   0.00000000000000E+00   0.00000000000000E+00   0.00000000000000E+00
     -2.36752673739678E-19   4.68582742367118E-28  -2.36752673271095E-19  -9.55554873175030E-16   7.00000000000000E+00
      7.00000000000000E+00   0.00000000000000E+00   0.00000000000000E+00   0.00000000000000E+00   0.00000000000000E+00
      0.00000000000000E+00   7.81944931619046E-15
      1.00000000000000E-02
      0.00000000000000E+00   0.00000000000000E+00   0.00000000000000E+00   0.00000000000000E+00   2.15191670990712E-18
     -1.23862090519877E-16  -1.21710173809970E-16  -5.92635125555074E-15   0.00000000000000E+00   0.00000000000000E+00
      0.00000000000000E+00   0.00000000000000E+00  -2.49918244045185E-04  -1.79485141298860E-23  -2.49918244045185E-04
     -9.54628024721291E-16   3.00000000000000E-02   3.00000000000000E-02   0.00000000000000E+00   0.00000000000000E+00
      2.49918244045306E-04   9.78280429665588E-21   2.49918244045306E-04  -9.20224076029109E-16   7.00000000000000E+00
      7.00000000000000E+00   0.00000000000000E+00   0.00000000000000E+00   0.00000000000000E+00   0.00000000000000E+00
      0.00000000000000E+00   7.80120335630114E-15
      2.33333333333333E-02
      0.00000000000000E+00   0.00000000000000E+00   0.00000000000000E+00   0.00000000000000E+00   1.53574832768879E-15
     -2.70101850580256E-16   1.26564647710853E-15  -5.95009924196427E-15   0.00000000000000E+00   0.00000000000000E+00
      0.00000000000000E+00   0.00000000000000E+00  -5.57081420638622E-04  -4.04127112368564E-23  -5.57081420638622E-04
     -9.53609658001051E-16   7.00000000000000E-02   7.00000000000000E-02   0.00000000000000E+00   0.00000000000000E+00
      5.57081420637357E-04   1.30591434854226E-20   5.57081420637357E-04  -8.73188156296603E-16   7.00000000000000E+00
      7.00000000000000E+00   0.00000000000000E+00   0.00000000000000E+00   0.00000000000000E+00   0.00000000000000E+00
      0.00000000000000E+00   7.77689705626191E-15
      4.28888888888889E-02
      0.00000000000000E+00   0.00000000000000E+00   0.00000000000000E+00   0.00000000000000E+00  -8.04107462614249E-18
     -4.43962730027309E-16  -4.52003804653452E-16  -5.98440968285394E-15   0.00000000000000E+00   0.00000000000000E+00
      0.00000000000000E+00   0.00000000000000E+00  -9.56519998332454E-04  -6.89097574473718E-23  -9.56519998332454E-04
     -9.52539044795786E-16   1.28666666666667E-01   1.28666666666667E-01   0.00000000000000E+00   0.00000000000000E+00
      9.56519998332906E-04   1.37361194405007E-20   9.56519998332906E-04  -8.04354319014088E-16   7.00000000000000E+00
      7.00000000000000E+00   0.00000000000000E+00   0.00000000000000E+00   0.00000000000000E+00   0.00000000000000E+00
      0.00000000000000E+00   7.74130304666381E-15
      6.78888888888889E-02
      0.00000000000000E+00   0.00000000000000E+00   0.00000000000000E+00   0.00000000000000E+00   1.43835712030745E-17
     -5.80777929689760E-16  -5.66394358486685E-16  -6.02744580771379E-15   0.00000000000000E+00   0.00000000000000E+00
      0.00000000000000E+00   0.00000000000000E+00  -1.38985982027533E-03  -1.00285309223222E-22  -1.38985982027533E-03
     -9.51804733176564E-16   2.03666666666667E-01   2.03666666666667E-01   0.00000000000000E+00   0.00000000000000E+00
      1.38985982027589E-03   1.39498677755865E-20   1.38985982027589E-03  -7.16671175310170E-16   7.00000000000000E+00
      7.00000000000000E+00   0.00000000000000E+00   0.00000000000000E+00   0.00000000000000E+00   0.00000000000000E+00
      0.00000000000000E+00   7.69592171620052E-15
      9.28888888888889E-02
      0.00000000000000E+00   0.00000000000000E+00   0.00000000000000E+00   0.00000000000000E+00  -1.71015299206697E-17
     -6.57519893473271E-16  -6.74621423393941E-16  -6.06963831815911E-15   0.00000000000000E+00   0.00000000000000E+00
      0.00000000000000E+00   0.00000000000000E+00  -1.75081838901335E-03  -1.26468826970566E-22  -1.75081838901335E-03
     -9.51654458813217E-16   2.78666666666667E-01   2.78666666666667E-01   0.00000000000000E+00   0.00000000000000E+00
      1.75081838901402E-03   1.42447327636307E-20   1.75081838901402E-03  -6.29423837781399E-16   7.00000000000000E+00
      7.00000000000000E+00   0.00000000000000E+00   0.00000000000000E+00   0.00000000000000E+00   0.00000000000000E+00
      0.00000000000000E+00   7.65071661475372E-15
      1.17888888888889E-01
      0.00000000000000E+00   0.00000000000000E+00   0.00000000000000E+00   0.00000000000000E+00   9.06055566869842E-18
     -7.02085444276330E-16  -6.93024888607632E-16  -6.11105811843520E-15   0.00000000000000E+00   0.00000000000000E+00
      0.00000000000000E+00   0.00000000000000E+00  -2.05251247233667E-03  -1.48376735856710E-22  -2.05251247233667E-03
     -9.51967987101986E-16   3.53666666666667E-01   3.53666666666667E-01   0.00000000000000E+00   0.00000000000000E+00
      2.05251247233736E-03   1.44986579685695E-20   2.05251247233736E-03  -5.42705858929014E-16   7.00000000000000E+00
      7.00000000000000E+00   0.00000000000000E+00   0.00000000000000E+00   0.00000000000000E+00   0.00000000000000E+00
      0.00000000000000E+00   7.60573196446620E-15
      1.42888888888889E-01
      0.00000000000000E+00   0.00000000000000E+00   0.00000000000000E+00   0.00000000000000E+00  -3.78273312383326E-17
     -7.34026785940962E-16  -7.71854117179295E-16  -6.15176158925273E-15   0.00000000000000E+00   0.00000000000000E+00
      0.00000000000000E+00   0.00000000000000E+00  -2.30559320571326E-03  -1.66767421415600E-22  -2.30559320571326E-03
     -9.52643520483416E-16   4.28666666666667E-01   4.28666666666667E-01   0.00000000000000E+00   0.00000000000000E+00
      2.30559320571403E-03   1.47107667769796E-20   2.30559320571403E-03  -4.56606339211519E-16   7.00000000000000E+00
      7.00000000000000E+00   0.00000000000000E+00   0.00000000000000E+00   0.00000000000000E+00   0.00000000000000E+00
      0.00000000000000E+00   7.56101144894766E-15
      1.67888888888889E-01
      0.00000000000000E+00   0.00000000000000E+00   0.00000000000000E+00   0.00000000000000E+00   2.65019481871351E-17
     -7.63305951542219E-16  -7.36804003355084E-16  -6.19178993783244E-15   0.00000000000000E+00   0.00000000000000E+00
      0.00000000000000E+00   0.00000000000000E+00  -2.51869294026651E-03  -1.82258276079621E-22  -2.51869294026651E-03
     -9.53595419397981E-16   5.03666666666667E-01   5.03666666666667E-01   0.00000000000000E+00   0.00000000000000E+00
      2.51869294026725E-03   1.48878945221695E-20   2.51869294026725E-03  -3.71217234919577E-16   7.00000000000000E+00
      7.00000000000000E+00   0.00000000000000E+00   0.00000000000000E+00   0.00000000000000E+00   0.00000000000000E+00
      0.00000000000000E+00   7.51660259214999E-15
      1.92888888888889E-01
      0.00000000000000E+00   0.00000000000000E+00   0.00000000000000E+00   0.00000000000000E+00  -4.75664304237135E-18
     -7.88798907127881E-16  -7.93555550170253E-16  -6.23112929847783E-15   0.00000000000000E+00   0.00000000000000E+00
      0.00000000000000E+00   0.00000000000000E+00  -2.69877595351600E-03  -1.95352175050622E-22  -2.69877595351600E-03
     -9.54753759912941E-16   5.78666666666667E-01   5.78666666666667E-01   0.00000000000000E+00   0.00000000000000E+00
      2.69877595351679E-03   1.50367545868388E-20   2.69877595351679E-03  -2.86667637889602E-16   7.00000000000000E+00
      7.00000000000000E+00   0.00000000000000E+00   0.00000000000000E+00   0.00000000000000E+00   0.00000000000000E+00
      0.00000000000000E+00   7.47255069628037E-15
      2.17888888888889E-01
      0.00000000000000E+00   0.00000000000000E+00   0.00000000000000E+00   0.00000000000000E+00   1.29112583898760E-17
     -8.08646325812990E-16  -7.95735067423114E-16  -6.26966723761828E-15   0.00000000000000E+00   0.00000000000000E+00
      0.00000000000000E+00   0.00000000000000E+00  -2.85150843665696E-03  -2.06459846952866E-22  -2.85150843665696E-03
     -9.56064804081280E-16   6.53666666666667E-01   6.53666666666667E-01   0.00000000000000E+00   0.00000000000000E+00
      2.85150843665775E-03   1.51621840309398E-20   2.85150843665775E-03  -2.03167778215757E-16   7.00000000000000E+00
      7.00000000000000E+00   0.00000000000000E+00   0.00000000000000E+00   0.00000000000000E+00   0.00000000000000E+00
      0.00000000000000E+00   7.42889981991531E-15
      2.42888888888889E-01
      0.00000000000000E+00   0.00000000000000E+00   0.00000000000000E+00   0.00000000000000E+00  -2.98994218440522E-17
     -8.28136995662909E-16  -8.58036417506961E-16  -6.30716668727015E-15   0.00000000000000E+00   0.00000000000000E+00
      0.00000000000000E+00   0.00000000000000E+00  -2.98152380435498E-03  -2.15914942331439E-22  -2.98152380435498E-03
     -9.57488112738708E-16   7.28666666666667E-01   7.28666666666667E-01   0.00000000000000E+00   0.00000000000000E+00
      2.98152380435583E-03   1.52675913666234E-20   2.98152380435583E-03  -1.21037440564092E-16   7.00000000000000E+00
      7.00000000000000E+00   0.00000000000000E+00   0.00000000000000E+00   0.00000000000000E+00   0.00000000000000E+00
      0.00000000000000E+00   7.38569224057295E-15
      2.67888888888889E-01
      0.00000000000000E+00   0.00000000000000E+00   0.00000000000000E+00   0.00000000000000E+00   1.74414911567315E-17
     -8.51163853479094E-16  -8.33722362322362E-16  -6.34331087470822E-15   0.00000000000000E+00   0.00000000000000E+00
      0.00000000000000E+00   0.00000000000000E+00  -3.09261900557032E-03  -2.23993724826203E-22  -3.09261900557032E-03
     -9.58992523615043E-16   8.03666666666667E-01   8.03666666666667E-01   0.00000000000000E+00   0.00000000000000E+00
      3.09261900557116E-03   1.53561943667823E-20   3.09261900557116E-03  -4.06632797820357E-17   7.00000000000000E+00
      7.00000000000000E+00   0.00000000000000E+00   0.00000000000000E+00   0.00000000000000E+00   0.00000000000000E+00
      0.00000000000000E+00   7.34296667810530E-15
      2.92888888888889E-01
      0.00000000000000E+00   0.00000000000000E+00   0.00000000000000E+00   0.00000000000000E+00   1.22317264926286E-17
     -8.76660187905474E-16  -8.64428461412845E-16  -6.37790831771995E-15   0.00000000000000E+00   0.00000000000000E+00
      0.00000000000000E+00   0.00000000000000E+00  -3.18791695041292E-03  -2.30923711297608E-22  -3.18791695041292E-03
     -9.60552641129156E-16   8.78666666666667E-01   8.78666666666667E-01   0.00000000000000E+00   0.00000000000000E+00
      3.18791695041379E-03   1.54316799806189E-20   3.18791695041379E-03   3.77029595470906E-17   7.00000000000000E+00
      7.00000000000000E+00   0.00000000000000E+00   0.00000000000000E+00   0.00000000000000E+00   0.00000000000000E+00
      0.00000000000000E+00   7.30075799930202E-15
      3.17888888888889E-01
      0.00000000000000E+00   0.00000000000000E+00   0.00000000000000E+00   0.00000000000000E+00   6.79638577001434E-19
     -9.03413996367184E-16  -9.02734357790182E-16  -6.41116877236592E-15   0.00000000000000E+00   0.00000000000000E+00
      0.00000000000000E+00   0.00000000000000E+00  -3.26999107650544E-03  -2.36892259681741E-22  -3.26999107650544E-03
     -9.62146455171285E-16   9.53666666666667E-01   9.53666666666667E-01   0.00000000000000E+00   0.00000000000000E+00
      3.26999107650634E-03   1.54967004817493E-20   3.26999107650634E-03   1.14218429243626E-16   7.00000000000000E+00
      7.00000000000000E+00   0.00000000000000E+00   0.00000000000000E+00   0.00000000000000E+00   0.00000000000000E+00
      0.00000000000000E+00   7.25909679829357E-15
      3.42888888888889E-01
      0.00000000000000E+00   0.00000000000000E+00   0.00000000000000E+00   0.00000000000000E+00   4.75684691754486E-18
     -9.30646761195699E-16  -9.25889914278154E-16  -6.44367073441707E-15   0.00000000000000E+00   0.00000000000000E+00
      0.00000000000000E+00   0.00000000000000E+00  -3.34097170554022E-03  -2.42054530850999E-22  -3.34097170554022E-03
     -9.63755375528124E-16   1.02866666666667E+00   1.02866666666667E+00   0.00000000000000E+00   0.00000000000000E+00
      3.34097170554115E-03   1.55530823690054E-20   3.34097170554115E-03   1.89417513011549E-16   7.00000000000000E+00
      7.00000000000000E+00   0.00000000000000E+00   0.00000000000000E+00   0.00000000000000E+00   0.00000000000000E+00
      0.00000000000000E+00   7.21800859693364E-15
      3.67888888888889E-01
      0.00000000000000E+00   0.00000000000000E+00   0.00000000000000E+00   0.00000000000000E+00  -3.89598799931200E-17
     -9.55489379514629E-16  -9.94449259507749E-16  -6.47600159737804E-15   0.00000000000000E+00   0.00000000000000E+00
      0.00000000000000E+00   0.00000000000000E+00  -3.40263292458493E-03  -2.46540041879305E-22  -3.40263292458493E-03
     -9.65365502540699E-16   1.10366666666667E+00   1.10366666666667E+00   0.00000000000000E+00   0.00000000000000E+00
      3.40263292458593E-03   1.56022449997208E-20   3.40263292458593E-03   2.63853257876782E-16   7.00000000000000E+00
      7.00000000000000E+00   0.00000000000000E+00   0.00000000000000E+00   0.00000000000000E+00   0.00000000000000E+00
      0.00000000000000E+00   7.17751384204195E-15
      3.92888888888889E-01
      0.00000000000000E+00   0.00000000000000E+00   0.00000000000000E+00   0.00000000000000E+00   4.19047406721417E-17
     -9.77856366104543E-16  -9.35951625432402E-16  -6.50852857249218E-15   0.00000000000000E+00   0.00000000000000E+00
      0.00000000000000E+00   0.00000000000000E+00  -3.45646930488471E-03  -2.50457540591205E-22  -3.45646930488471E-03
     -9.66969152944421E-16   1.17866666666667E+00   1.17866666666667E+00   0.00000000000000E+00   0.00000000000000E+00
      3.45646930488565E-03   1.56453450876688E-20   3.45646930488565E-03   3.37873165719046E-16   7.00000000000000E+00
      7.00000000000000E+00   0.00000000000000E+00   0.00000000000000E+00   0.00000000000000E+00   0.00000000000000E+00
      0.00000000000000E+00   7.13762455971755E-15
      4.17888888888889E-01
      0.00000000000000E+00   0.00000000000000E+00   0.00000000000000E+00   0.00000000000000E+00  -2.98994174483550E-17
     -9.99721947038123E-16  -1.02962136448648E-15  -6.54143147818093E-15   0.00000000000000E+00   0.00000000000000E+00
      0.00000000000000E+00   0.00000000000000E+00  -3.50374571729423E-03  -2.53899011399642E-22  -3.50374571729423E-03
     -9.68564158798833E-16   1.25366666666667E+00   1.25366666666667E+00   0.00000000000000E+00   0.00000000000000E+00
      3.50374571729526E-03   1.56833459856975E-20   3.50374571729526E-03   4.11650083097416E-16   7.00000000000000E+00
      7.00000000000000E+00   0.00000000000000E+00   0.00000000000000E+00   0.00000000000000E+00   0.00000000000000E+00
      0.00000000000000E+00   7.09834555388234E-15
      4.42888888888889E-01
      0.00000000000000E+00   0.00000000000000E+00   0.00000000000000E+00   0.00000000000000E+00   1.35917561062492E-18
     -1.02350997392758E-15  -1.02215079831696E-15  -6.57479161320336E-15   0.00000000000000E+00   0.00000000000000E+00
      0.00000000000000E+00   0.00000000000000E+00  -3.54553133076228E-03  -2.56941037007353E-22  -3.54553133076228E-03
     -9.70152646174383E-16   1.32866666666667E+00   1.32866666666667E+00   0.00000000000000E+00   0.00000000000000E+00
      3.54553133076330E-03   1.57170510302117E-20   3.54553133076330E-03   4.85270187639325E-16   7.00000000000000E+00
      7.00000000000000E+00   0.00000000000000E+00   0.00000000000000E+00   0.00000000000000E+00   0.00000000000000E+00
      0.00000000000000E+00   7.05967407173841E-15
      4.67888888888889E-01
      0.00000000000000E+00   0.00000000000000E+00   0.00000000000000E+00   0.00000000000000E+00   1.13266441126004E-18
     -1.05009628987931E-15  -1.04896362546805E-15  -6.60865813279563E-15   0.00000000000000E+00   0.00000000000000E+00
      0.00000000000000E+00   0.00000000000000E+00  -3.58271907305555E-03  -2.59649804086191E-22  -3.58271907305555E-03
     -9.71738920675992E-16   1.40366666666667E+00   1.40366666666667E+00   0.00000000000000E+00   0.00000000000000E+00
      3.58271907305660E-03   1.57471375481219E-20   3.58271907305660E-03   5.58791063689377E-16   7.00000000000000E+00
      7.00000000000000E+00   0.00000000000000E+00   0.00000000000000E+00   0.00000000000000E+00   0.00000000000000E+00
      0.00000000000000E+00   7.02160598978225E-15
      4.92888888888889E-01
      0.00000000000000E+00   0.00000000000000E+00   0.00000000000000E+00   0.00000000000000E+00  -2.24245355588865E-17
     -1.07852701417835E-15  -1.10095154973724E-15  -6.64303478077813E-15   0.00000000000000E+00   0.00000000000000E+00
      0.00000000000000E+00   0.00000000000000E+00  -3.61607731734980E-03  -2.62080404051869E-22  -3.61607731734980E-03
     -9.73328002388855E-16   1.47866666666667E+00   1.47866666666667E+00   0.00000000000000E+00   0.00000000000000E+00
      3.61607731735090E-03   1.57742074032555E-20   3.61607731735090E-03   6.32242956443060E-16   7.00000000000000E+00
      7.00000000000000E+00   0.00000000000000E+00   0.00000000000000E+00   0.00000000000000E+00   0.00000000000000E+00
      0.00000000000000E+00   6.98411982672393E-15
      5.17888888888889E-01
      0.00000000000000E+00   0.00000000000000E+00   0.00000000000000E+00   0.00000000000000E+00   4.07731503953748E-18
     -1.10933795357716E-15  -1.10526063853762E-15  -6.67792709530449E-15   0.00000000000000E+00   0.00000000000000E+00
      0.00000000000000E+00   0.00000000000000E+00  -3.64623606858093E-03  -2.64278733758458E-22  -3.64623606858093E-03
     -9.74923221677832E-16   1.55366666666667E+00   1.55366666666667E+00   0.00000000000000E+00   0.00000000000000E+00
      3.64623606858204E-03   1.57987590383722E-20   3.64623606858204E-03   7.05656018962156E-16   7.00000000000000E+00
      7.00000000000000E+00   0.00000000000000E+00   0.00000000000000E+00   0.00000000000000E+00   0.00000000000000E+00
      0.00000000000000E+00   6.94719429802016E-15
      5.42888888888889E-01
      0.00000000000000E+00   0.00000000000000E+00   0.00000000000000E+00   0.00000000000000E+00   2.98996309952692E-17
     -1.14886918803127E-15  -1.11896955703600E-15  -6.71333461904438E-15   0.00000000000000E+00   0.00000000000000E+00
      0.00000000000000E+00   0.00000000000000E+00  -3.67371582967592E-03  -2.66282597591969E-22  -3.67371582967592E-03
     -9.76525680042564E-16   1.62866666666667E+00   1.62866666666667E+00   0.00000000000000E+00   0.00000000000000E+00
      3.67371582967704E-03   1.58212093848930E-20   3.67371582967704E-03   7.79056130921597E-16   7.00000000000000E+00
      7.00000000000000E+00   0.00000000000000E+00   0.00000000000000E+00   0.00000000000000E+00   0.00000000000000E+00
      0.00000000000000E+00   6.91080416816534E-15
      5.67888888888889E-01
      0.00000000000000E+00   0.00000000000000E+00   0.00000000000000E+00   0.00000000000000E+00   5.20977622797937E-17
     -1.21170459481229E-15  -1.15960683253249E-15  -6.74925194367255E-15   0.00000000000000E+00   0.00000000000000E+00
      0.00000000000000E+00   0.00000000000000E+00  -3.69894421506891E-03  -2.68122945847420E-22  -3.69894421506891E-03
     -9.78134666716921E-16   1.70366666666667E+00   1.70366666666667E+00   0.00000000000000E+00   0.00000000000000E+00
      3.69894421507007E-03   1.58419026699972E-20   3.69894421507007E-03   8.52464442170681E-16   7.00000000000000E+00
      7.00000000000000E+00   0.00000000000000E+00   0.00000000000000E+00   0.00000000000000E+00   0.00000000000000E+00
      0.00000000000000E+00   6.87492216821879E-15
      5.92888888888889E-01
      0.00000000000000E+00   0.00000000000000E+00   0.00000000000000E+00   0.00000000000000E+00  -5.61747541452947E-17
     -1.31007288611384E-15  -1.36624764025914E-15  -6.78566745844427E-15   0.00000000000000E+00   0.00000000000000E+00
      0.00000000000000E+00   0.00000000000000E+00  -3.72227197037564E-03  -2.69826036179139E-22  -3.72227197037564E-03
     -9.79748742852088E-16   1.77866666666667E+00   1.77866666666667E+00   0.00000000000000E+00   0.00000000000000E+00
      3.72227197037700E-03   1.58611195443356E-20   3.72227197037700E-03   9.25895542279319E-16   7.00000000000000E+00
      7.00000000000000E+00   0.00000000000000E+00   0.00000000000000E+00   0.00000000000000E+00   0.00000000000000E+00
      0.00000000000000E+00   6.83952065901703E-15
      6.17888888888889E-01
      0.00000000000000E+00   0.00000000000000E+00   0.00000000000000E+00   0.00000000000000E+00  -2.26500710897446E-18
     -1.42468426201887E-15  -1.42694926912785E-15  -6.82256190127956E-15   0.00000000000000E+00   0.00000000000000E+00
      0.00000000000000E+00   0.00000000000000E+00  -3.74398712144009E-03  -2.71411780152653E-22  -3.74398712144009E-03
     -9.81366730271355E-16   1.85366666666667E+00   1.85366666666667E+00   0.00000000000000E+00   0.00000000000000E+00
      3.74398712144151E-03   1.58790885487721E-20   3.74398712144151E-03   9.99355853847979E-16   7.00000000000000E+00
      7.00000000000000E+00   0.00000000000000E+00   0.00000000000000E+00   0.00000000000000E+00   0.00000000000000E+00
      0.00000000000000E+00   6.80457277770293E-15
      6.42888888888889E-01
      0.00000000000000E+00   0.00000000000000E+00   0.00000000000000E+00   0.00000000000000E+00   8.60754710593207E-18
     -1.51715544355103E-15  -1.50854789644510E-15  -6.85990792133993E-15   0.00000000000000E+00   0.00000000000000E+00
      0.00000000000000E+00   0.00000000000000E+00  -3.76432671974585E-03  -2.72897932200825E-22  -3.76432671974585E-03
     -9.82988227018234E-16   1.92866666666667E+00   1.92866666666667E+00   0.00000000000000E+00   0.00000000000000E+00
      3.76432671974736E-03   1.58959965470057E-20   3.76432671974736E-03   1.07284326121422E-15   7.00000000000000E+00
      7.00000000000000E+00   0.00000000000000E+00   0.00000000000000E+00   0.00000000000000E+00   0.00000000000000E+00
      0.00000000000000E+00   6.77005288714394E-15
      6.67888888888889E-01
      0.00000000000000E+00   0.00000000000000E+00   0.00000000000000E+00   0.00000000000000E+00  -5.88919129239010E-18
     -1.57707039933763E-15  -1.58295959063002E-15  -6.89767055640595E-15   0.00000000000000E+00   0.00000000000000E+00
      0.00000000000000E+00   0.00000000000000E+00  -3.78348656395089E-03  -2.74299091484925E-22  -3.78348656395089E-03
     -9.84613695025437E-16   2.00366666666667E+00   2.00366666666667E+00   0.00000000000000E+00   0.00000000000000E+00
      3.78348656395247E-03   1.59119966179624E-20   3.78348656395247E-03   1.14634798471987E-15   7.00000000000000E+00
      7.00000000000000E+00   0.00000000000000E+00   0.00000000000000E+00   0.00000000000000E+00   0.00000000000000E+00
      0.00000000000000E+00   6.73593626671151E-15
      6.92888888888889E-01
      0.00000000000000E+00   0.00000000000000E+00   0.00000000000000E+00   0.00000000000000E+00   9.51359373644552E-18
     -1.61333129409701E-15  -1.60381770036057E-15  -6.93580810595739E-15   0.00000000000000E+00   0.00000000000000E+00
      0.00000000000000E+00   0.00000000000000E+00  -3.80162926248134E-03  -2.75625804676621E-22  -3.80162926248134E-03
     -9.86244290953421E-16   2.07866666666667E+00   2.07866666666667E+00   0.00000000000000E+00   0.00000000000000E+00
      3.80162926248295E-03   1.59272152655864E-20   3.80162926248295E-03   1.21985412341055E-15   7.00000000000000E+00
      7.00000000000000E+00   0.00000000000000E+00   0.00000000000000E+00   0.00000000000000E+00   0.00000000000000E+00
      0.00000000000000E+00   6.70219827350026E-15
      7.17888888888889E-01
      0.00000000000000E+00   0.00000000000000E+00   0.00000000000000E+00   0.00000000000000E+00  -4.07709850661567E-18
     -1.63373079720116E-15  -1.63780789570777E-15  -6.97427321599120E-15   0.00000000000000E+00   0.00000000000000E+00
      0.00000000000000E+00   0.00000000000000E+00  -3.81889073646624E-03  -2.76889697777007E-22  -3.81889073646624E-03
     -9.87881560278771E-16   2.15366666666667E+00   2.15366666666667E+00   0.00000000000000E+00   0.00000000000000E+00
      3.81889073646787E-03   1.59417576105644E-20   3.81889073646787E-03   1.29334136967233E-15   7.00000000000000E+00
      7.00000000000000E+00   0.00000000000000E+00   0.00000000000000E+00   0.00000000000000E+00   0.00000000000000E+00
      0.00000000000000E+00   6.66881340659763E-15
      7.42888888888889E-01
      0.00000000000000E+00   0.00000000000000E+00   0.00000000000000E+00   0.00000000000000E+00   1.31054141542420E-13
     -1.64525370453126E-15   1.29408887837888E-13  -7.01301435178707E-15   0.00000000000000E+00   0.00000000000000E+00
      0.00000000000000E+00   0.00000000000000E+00  -3.83538516290164E-03  -2.78079880953189E-22  -3.83538516290164E-03
     -9.89527065919929E-16   2.22866666666667E+00   2.22866666666667E+00   0.00000000000000E+00   0.00000000000000E+00
      3.83538516277223E-03   1.59556956655515E-20   3.83538516277223E-03   1.36678671188595E-15   7.00000000000000E+00
      7.00000000000000E+00   0.00000000000000E+00   0.00000000000000E+00   0.00000000000000E+00   0.00000000000000E+00
      0.00000000000000E+00   6.63575470582103E-15
      7.67888888888889E-01
      0.00000000000000E+00   0.00000000000000E+00   0.00000000000000E+00   0.00000000000000E+00   6.32682977377982E-14
     -1.65407895857044E-15   6.16142187792278E-14  -7.05197775154891E-15   0.00000000000000E+00   0.00000000000000E+00
      0.00000000000000E+00   0.00000000000000E+00  -3.85120844519803E-03  -2.79243757633925E-22  -3.85120844519803E-03
     -9.91182029684264E-16   2.30366666666667E+00   2.30366666666667E+00   0.00000000000000E+00   0.00000000000000E+00
      3.85120844513641E-03   1.59687480604666E-20   3.85120844513641E-03   1.44016596065290E-15   7.00000000000000E+00
      7.00000000000000E+00   0.00000000000000E+00   0.00000000000000E+00   0.00000000000000E+00   0.00000000000000E+00
      0.00000000000000E+00   6.60299382058027E-15
      7.92888888888889E-01
      0.00000000000000E+00   0.00000000000000E+00   0.00000000000000E+00   0.00000000000000E+00   2.89667490153567E-14
     -1.66436838049933E-15   2.73023806348574E-14  -7.09110964929193E-15   0.00000000000000E+00   0.00000000000000E+00
      0.00000000000000E+00   0.00000000000000E+00  -3.86644051284522E-03  -2.80365570553014E-22  -3.86644051284522E-03
     -9.92847090966281E-16   2.37866666666667E+00   2.37866666666667E+00   0.00000000000000E+00   0.00000000000000E+00
      3.86644051281792E-03   1.59784586744703E-20   3.86644051281792E-03   1.51345488686486E-15   7.00000000000000E+00
      7.00000000000000E+00   0.00000000000000E+00   0.00000000000000E+00   0.00000000000000E+00   0.00000000000000E+00
      0.00000000000000E+00   6.57050185339334E-15
      8.17888888888889E-01
      0.00000000000000E+00   0.00000000000000E+00   0.00000000000000E+00   0.00000000000000E+00   1.24096614035966E-14
     -1.67798991713661E-15   1.07316714864600E-14  -7.13035836762750E-15   0.00000000000000E+00   0.00000000000000E+00
      0.00000000000000E+00   0.00000000000000E+00  -3.88114695643716E-03  -2.81448240333685E-22  -3.88114695643716E-03
     -9.94522264323590E-16   2.45366666666667E+00   2.45366666666667E+00   0.00000000000000E+00   0.00000000000000E+00
      3.88114695642643E-03   1.59712028643055E-20   3.88114695642643E-03   1.58662989682140E-15   7.00000000000000E+00
      7.00000000000000E+00   0.00000000000000E+00   0.00000000000000E+00   0.00000000000000E+00   0.00000000000000E+00
      0.00000000000000E+00   6.53825073512969E-15
      8.42888888888889E-01
      0.00000000000000E+00   0.00000000000000E+00   0.00000000000000E+00   0.00000000000000E+00   4.72050062789381E-15
     -1.69491640657108E-15   3.02558422132273E-15  -7.16967595071731E-15   0.00000000000000E+00   0.00000000000000E+00
      0.00000000000000E+00   0.00000000000000E+00  -3.89538080221463E-03  -2.82495202623249E-22  -3.89538080221463E-03
     -9.96207101272202E-16   2.52866666666667E+00   2.52866666666667E+00   0.00000000000000E+00   0.00000000000000E+00
      3.89538080221160E-03   1.59958242558203E-20   3.89538080221160E-03   1.65966827253810E-15   7.00000000000000E+00
      7.00000000000000E+00   0.00000000000000E+00   0.00000000000000E+00   0.00000000000000E+00   0.00000000000000E+00
      0.00000000000000E+00   6.50621477945140E-15
      8.67888888888889E-01
      0.00000000000000E+00   0.00000000000000E+00   0.00000000000000E+00   0.00000000000000E+00   9.53160675675891E-16