DF-ISE text

Info {
  version   = 1.0
  type      = xyplot
  datasets  = [
    "time"
    "substrate OuterVoltage" "substrate InnerVoltage" "substrate QuasiFermiPotential" "substrate DisplacementCurrent" "substrate eCurrent"
    "substrate hCurrent" "substrate TotalCurrent" "substrate Charge" "source OuterVoltage" "source InnerVoltage"
    "source QuasiFermiPotential" "source DisplacementCurrent" "source eCurrent" "source hCurrent" "source TotalCurrent"
    "source Charge" "drain OuterVoltage" "drain InnerVoltage" "drain QuasiFermiPotential" "drain DisplacementCurrent"
    "drain eCurrent" "drain hCurrent" "drain TotalCurrent" "drain Charge" "gate OuterVoltage"
    "gate InnerVoltage" "gate QuasiFermiPotential" "gate DisplacementCurrent" "gate eCurrent" "gate hCurrent"
    "gate TotalCurrent" "gate Charge" ]
  functions = [
    Time
    OuterVoltage InnerVoltage QuasiFermiPotential DisplacementCurrent eCurrent
    hCurrent TotalCurrent Charge OuterVoltage InnerVoltage
    QuasiFermiPotential DisplacementCurrent eCurrent hCurrent TotalCurrent
    Charge OuterVoltage InnerVoltage QuasiFermiPotential DisplacementCurrent
    eCurrent hCurrent TotalCurrent Charge OuterVoltage
    InnerVoltage QuasiFermiPotential DisplacementCurrent eCurrent hCurrent
    TotalCurrent Charge ]
}

Data {
      0.00000000000000E+00
      0.00000000000000E+00   0.00000000000000E+00   0.00000000000000E+00   0.00000000000000E+00  -3.89645948872052E-27
     -2.12596740454063E-21  -2.12597130100011E-21  -7.82740887093669E-15   0.00000000000000E+00   0.00000000000000E+00
      0.00000000000000E+00   0.00000000000000E+00  -5.12827149798973E-28  -7.08565586802968E-22  -7.08566099630117E-22
      3.12398286784465E-15   0.00000000000000E+00   0.00000000000000E+00   0.00000000000000E+00   0.00000000000000E+00
      3.79093810163826E-27   2.83453360969213E-21   2.83453740063023E-21   3.12398286784465E-15   1.00000000000000E+00
      1.00000000000000E+00   0.00000000000000E+00   0.00000000000000E+00   0.00000000000000E+00   0.00000000000000E+00
      0.00000000000000E+00   1.57944313524739E-15
      1.00000000000000E-02
      0.00000000000000E+00   0.00000000000000E+00   0.00000000000000E+00   0.00000000000000E+00  -7.88023071425189E-21
     -3.42076674712183E-13  -3.42076682592414E-13  -7.90797978236780E-15   0.00000000000000E+00   0.00000000000000E+00
      0.00000000000000E+00   0.00000000000000E+00  -2.64713350457442E-21   5.69460101938289E-22  -2.07767340263613E-21
      3.12398286743513E-15   3.00000000000000E-02   3.00000000000000E-02   0.00000000000000E+00   0.00000000000000E+00
      3.42076673784844E-13   1.08852432694284E-20   3.42076684670087E-13   3.20457731098249E-15   1.00000000000000E+00
      1.00000000000000E+00   0.00000000000000E+00   0.00000000000000E+00   0.00000000000000E+00   0.00000000000000E+00
      0.00000000000000E+00   1.57941960395021E-15
      2.36666666666667E-02
      0.00000000000000E+00   0.00000000000000E+00   0.00000000000000E+00   0.00000000000000E+00   2.11767862189836E-21
     -8.38398960297155E-13  -8.38398958179477E-13  -8.01662523686415E-15   0.00000000000000E+00   0.00000000000000E+00
      0.00000000000000E+00   0.00000000000000E+00  -5.58508937761735E-21   1.46655165151900E-21  -4.11853772609836E-21
      3.12398286684113E-15   7.10000000000000E-02   7.10000000000000E-02   0.00000000000000E+00   0.00000000000000E+00
      8.38402211213715E-13  -3.24891570009196E-18   8.38398962298015E-13   3.31325585523845E-15   1.00000000000000E+00
      1.00000000000000E+00   0.00000000000000E+00   0.00000000000000E+00   0.00000000000000E+00   0.00000000000000E+00
      0.00000000000000E+00   1.57938651478458E-15
      4.37111111111111E-02
      0.00000000000000E+00   0.00000000000000E+00   0.00000000000000E+00   0.00000000000000E+00  -1.16102582579307E-20
     -1.72882122267167E-12  -1.72882123428193E-12  -8.17266235469636E-15   0.00000000000000E+00   0.00000000000000E+00
      0.00000000000000E+00   0.00000000000000E+00  -1.03823472143191E-20  -1.20869435807239E-21  -1.15910415723915E-20
      3.12398286577565E-15   1.31133333333333E-01   1.31133333333333E-01   0.00000000000000E+00   0.00000000000000E+00
      1.72882123101765E-12   1.48553196412870E-20   1.72882124587297E-12   3.46934326339636E-15   1.00000000000000E+00
      1.00000000000000E+00   0.00000000000000E+00   0.00000000000000E+00   0.00000000000000E+00   0.00000000000000E+00
      0.00000000000000E+00   1.57933622552435E-15
      6.87111111111111E-02
      0.00000000000000E+00   0.00000000000000E+00   0.00000000000000E+00   0.00000000000000E+00  -1.18478220811373E-20
     -2.77687675503751E-12  -2.77687676688534E-12  -8.36135904966472E-15   0.00000000000000E+00   0.00000000000000E+00
      0.00000000000000E+00   0.00000000000000E+00  -1.59555971583712E-20   6.84479432615011E-22  -1.52711177257562E-20
      3.12398286452124E-15   2.06133333333333E-01   2.06133333333333E-01   0.00000000000000E+00   0.00000000000000E+00
      2.77687676460698E-12   1.75494761150648E-20   2.77687678215646E-12   3.65810509403091E-15   1.00000000000000E+00
      1.00000000000000E+00   0.00000000000000E+00   0.00000000000000E+00   0.00000000000000E+00   0.00000000000000E+00
      0.00000000000000E+00   1.57927109111258E-15
      9.37111111111111E-02
      0.00000000000000E+00   0.00000000000000E+00   0.00000000000000E+00   0.00000000000000E+00  -1.19970967949725E-20
     -3.38279205818674E-12  -3.38279207018384E-12  -8.54346256282426E-15   0.00000000000000E+00   0.00000000000000E+00
      0.00000000000000E+00   0.00000000000000E+00  -1.91824206380839E-20  -5.83759923139749E-22  -1.97661805612236E-20
      3.12398286379551E-15   2.81133333333333E-01   2.81133333333333E-01   0.00000000000000E+00   0.00000000000000E+00
      3.38279207076003E-12   1.91899866884599E-20   3.38279208995002E-12   3.84027562519971E-15   1.00000000000000E+00
      1.00000000000000E+00   0.00000000000000E+00   0.00000000000000E+00   0.00000000000000E+00   0.00000000000000E+00
      0.00000000000000E+00   1.57920407382904E-15
      1.18711111111111E-01
      0.00000000000000E+00   0.00000000000000E+00   0.00000000000000E+00   0.00000000000000E+00  -1.21240177758826E-20
     -3.70065918804017E-12  -3.70065920016419E-12  -8.71981140625778E-15   0.00000000000000E+00   0.00000000000000E+00
      0.00000000000000E+00   0.00000000000000E+00  -2.08833945920536E-20  -1.61104016890533E-21  -2.24944347609589E-20
      3.12398286341436E-15   3.56133333333333E-01   3.56133333333333E-01   0.00000000000000E+00   0.00000000000000E+00
      3.70065920210387E-12   2.05547506081125E-20   3.70065922265863E-12   4.01669248845422E-15   1.00000000000000E+00
      1.00000000000000E+00   0.00000000000000E+00   0.00000000000000E+00   0.00000000000000E+00   0.00000000000000E+00
      0.00000000000000E+00   1.57913605438921E-15
      1.43711111111111E-01
      0.00000000000000E+00   0.00000000000000E+00   0.00000000000000E+00   0.00000000000000E+00  -1.22381334808321E-20
     -3.90628081387375E-12  -3.90628082611188E-12  -8.89187725598094E-15   0.00000000000000E+00   0.00000000000000E+00
      0.00000000000000E+00   0.00000000000000E+00  -2.19887518249918E-20   1.18093303831938E-21  -2.08078187866725E-20
      3.12398286316757E-15   4.31133333333333E-01   4.31133333333333E-01   0.00000000000000E+00   0.00000000000000E+00
      3.90628082477820E-12   2.21414943954361E-20   3.90628084691970E-12   4.18882653392099E-15   1.00000000000000E+00
      1.00000000000000E+00   0.00000000000000E+00   0.00000000000000E+00   0.00000000000000E+00   0.00000000000000E+00
      0.00000000000000E+00   1.57906785889236E-15
      1.68711111111111E-01
      0.00000000000000E+00   0.00000000000000E+00   0.00000000000000E+00   0.00000000000000E+00  -1.23412778942700E-20
     -4.02959360163835E-12  -4.02959361397963E-12  -9.06108991624264E-15   0.00000000000000E+00   0.00000000000000E+00
      0.00000000000000E+00   0.00000000000000E+00  -2.26561603957711E-20  -7.80362998036944E-22  -2.34365233938081E-20
      3.12398286301950E-15   5.06133333333333E-01   5.06133333333333E-01   0.00000000000000E+00   0.00000000000000E+00
      4.02959361377674E-12   2.36394023871015E-20   4.02959363741614E-12   4.35810680710080E-15   1.00000000000000E+00
      1.00000000000000E+00   0.00000000000000E+00   0.00000000000000E+00   0.00000000000000E+00   0.00000000000000E+00
      0.00000000000000E+00   1.57900024612234E-15
      1.93711111111111E-01
      0.00000000000000E+00   0.00000000000000E+00   0.00000000000000E+00   0.00000000000000E+00  -1.24362154291107E-20
     -4.09703678629715E-12  -4.09703679873336E-12  -9.22842665753250E-15   0.00000000000000E+00   0.00000000000000E+00
      0.00000000000000E+00   0.00000000000000E+00  -2.30259967607921E-20  -4.78613655871841E-22  -2.35046104166639E-20
      3.12398286293849E-15   5.81133333333333E-01   5.81133333333333E-01   0.00000000000000E+00   0.00000000000000E+00
      4.09703679718947E-12   2.50485057873967E-20   4.09703682223798E-12   4.52550980918902E-15   1.00000000000000E+00
      1.00000000000000E+00   0.00000000000000E+00   0.00000000000000E+00   0.00000000000000E+00   0.00000000000000E+00
      0.00000000000000E+00   1.57893398540499E-15
      2.18711111111111E-01
      0.00000000000000E+00   0.00000000000000E+00   0.00000000000000E+00   0.00000000000000E+00  -1.25254144113165E-20
     -4.14103374409142E-12  -4.14103375661684E-12  -9.39441108048231E-15   0.00000000000000E+00   0.00000000000000E+00
      0.00000000000000E+00   0.00000000000000E+00  -2.32705781904874E-20   2.00906906544439E-21  -2.12615091250430E-20
      3.12398286288562E-15   6.56133333333333E-01   6.56133333333333E-01   0.00000000000000E+00   0.00000000000000E+00
      4.14103375154447E-12   2.63338816659232E-20   4.14103377787835E-12   4.69155820591418E-15   1.00000000000000E+00
      1.00000000000000E+00   0.00000000000000E+00   0.00000000000000E+00   0.00000000000000E+00   0.00000000000000E+00
      0.00000000000000E+00   1.57887001168251E-15
      2.43711111111111E-01
      0.00000000000000E+00   0.00000000000000E+00   0.00000000000000E+00   0.00000000000000E+00  -1.26095577366883E-20
     -4.17586020398024E-12  -4.17586021658979E-12  -9.55926772644929E-15   0.00000000000000E+00   0.00000000000000E+00
      0.00000000000000E+00   0.00000000000000E+00  -2.34656209512794E-20   1.44973469550519E-21  -2.20158862557742E-20
      3.12398286284377E-15   7.31133333333333E-01   7.31133333333333E-01   0.00000000000000E+00   0.00000000000000E+00
      4.17586021109189E-12   2.75137940585575E-20   4.17586023860568E-12   4.85647529643587E-15   1.00000000000000E+00
      1.00000000000000E+00   0.00000000000000E+00   0.00000000000000E+00   0.00000000000000E+00   0.00000000000000E+00
      0.00000000000000E+00   1.57880956716965E-15
      2.68711111111111E-01
      0.00000000000000E+00   0.00000000000000E+00   0.00000000000000E+00   0.00000000000000E+00  -1.26889594746300E-20
     -4.20994131142823E-12  -4.20994132411719E-12  -9.72309325648456E-15   0.00000000000000E+00   0.00000000000000E+00
      0.00000000000000E+00   0.00000000000000E+00  -2.36558590109178E-20  -7.61710423988599E-22  -2.44175694349064E-20
      3.12398286280285E-15   8.06133333333333E-01   8.06133333333333E-01   0.00000000000000E+00   0.00000000000000E+00
      4.20994131994046E-12   2.85943052059626E-20   4.20994134853476E-12   5.02035653792174E-15   1.00000000000000E+00
      1.00000000000000E+00   0.00000000000000E+00   0.00000000000000E+00   0.00000000000000E+00   0.00000000000000E+00
      0.00000000000000E+00   1.57875385575997E-15
      2.93711111111111E-01
      0.00000000000000E+00   0.00000000000000E+00   0.00000000000000E+00   0.00000000000000E+00  -1.27648212553580E-20
     -4.25723539126312E-12  -4.25723540402794E-12  -9.88605713712713E-15   0.00000000000000E+00   0.00000000000000E+00
      0.00000000000000E+00   0.00000000000000E+00  -2.39155067360328E-20   3.01163171366216E-22  -2.36143435646666E-20
      3.12398286274610E-15   8.81133333333333E-01   8.81133333333333E-01   0.00000000000000E+00   0.00000000000000E+00
      4.25723539804071E-12   2.96015805591392E-20   4.25723542764230E-12   5.18337165914660E-15   1.00000000000000E+00
      1.00000000000000E+00   0.00000000000000E+00   0.00000000000000E+00   0.00000000000000E+00   0.00000000000000E+00
      0.00000000000000E+00   1.57870261523444E-15
      3.18711111111111E-01
      0.00000000000000E+00   0.00000000000000E+00   0.00000000000000E+00   0.00000000000000E+00  -1.28388886813947E-20
     -4.34212987450389E-12  -4.34212988734278E-12  -1.00484459460345E-14   0.00000000000000E+00   0.00000000000000E+00
      0.00000000000000E+00   0.00000000000000E+00  -2.43742145887678E-20  -2.74435666508994E-21  -2.71185712538578E-20
      3.12398286264425E-15   9.56133333333333E-01   9.56133333333333E-01   0.00000000000000E+00   0.00000000000000E+00
      4.34212988392199E-12   3.05393622996829E-20   4.34212991446135E-12   5.34580929867627E-15   1.00000000000000E+00
      1.00000000000000E+00   0.00000000000000E+00   0.00000000000000E+00   0.00000000000000E+00   0.00000000000000E+00
      0.00000000000000E+00   1.57865378471392E-15
      3.43711111111111E-01
      0.00000000000000E+00   0.00000000000000E+00   0.00000000000000E+00   0.00000000000000E+00  -1.29124638985970E-20
     -4.50219986119114E-12  -4.50219987410361E-12  -1.02104726821677E-14   0.00000000000000E+00   0.00000000000000E+00
      0.00000000000000E+00   0.00000000000000E+00  -2.52315273738483E-20  -7.40873161911791E-23  -2.53056146900394E-20
      3.12398286245222E-15   1.03113333333333E+00   1.03113333333333E+00   0.00000000000000E+00   0.00000000000000E+00
      4.50219986798571E-12   3.14235152594477E-20   4.50219989940922E-12   5.50788423876119E-15   1.00000000000000E+00
      1.00000000000000E+00   0.00000000000000E+00   0.00000000000000E+00   0.00000000000000E+00   0.00000000000000E+00
      0.00000000000000E+00   1.57860558095429E-15
      3.68711111111111E-01
      0.00000000000000E+00   0.00000000000000E+00   0.00000000000000E+00   0.00000000000000E+00  -1.29787712526993E-20
     -4.76236107364901E-12  -4.76236108662779E-12  -1.03722209690304E-14   0.00000000000000E+00   0.00000000000000E+00
      0.00000000000000E+00   0.00000000000000E+00  -2.66191695185494E-20  -4.86180178612855E-22  -2.71053496971622E-20
      3.12398286214023E-15   1.10613333333333E+00   1.10613333333333E+00   0.00000000000000E+00   0.00000000000000E+00
      4.76236108144151E-12   3.22916168056905E-20   4.76236111373313E-12   5.66968084743183E-15   1.00000000000000E+00
      1.00000000000000E+00   0.00000000000000E+00   0.00000000000000E+00   0.00000000000000E+00   0.00000000000000E+00
      0.00000000000000E+00   1.57855725945837E-15
      3.93711111111111E-01
      0.00000000000000E+00   0.00000000000000E+00   0.00000000000000E+00   0.00000000000000E+00  -1.30610356420858E-20
     -5.10979281977747E-12  -5.10979283283850E-12  -1.05337060672028E-14   0.00000000000000E+00   0.00000000000000E+00
      0.00000000000000E+00   0.00000000000000E+00  -2.84677157699827E-20  -6.40141933805276E-22  -2.91078577037880E-20
      3.12398286172401E-15   1.18113333333333E+00   1.18113333333333E+00   0.00000000000000E+00   0.00000000000000E+00
      5.10979282881425E-12   3.31321208810371E-20   5.10979286194637E-12   5.83121459871860E-15   1.00000000000000E+00
      1.00000000000000E+00   0.00000000000000E+00   0.00000000000000E+00   0.00000000000000E+00   0.00000000000000E+00
      0.00000000000000E+00   1.57850860676016E-15
      4.18711111111111E-01
      0.00000000000000E+00   0.00000000000000E+00   0.00000000000000E+00   0.00000000000000E+00  -1.31298230597678E-20
     -5.57771474947189E-12  -5.57771476260171E-12  -1.06949152188994E-14   0.00000000000000E+00   0.00000000000000E+00
      0.00000000000000E+00   0.00000000000000E+00  -3.09520053938677E-20  -1.32618997552582E-21  -3.22781953693935E-20
      3.12398286116402E-15   1.25613333333333E+00   1.25613333333333E+00   0.00000000000000E+00   0.00000000000000E+00
      5.57771476087666E-12   3.40032420421451E-20   5.57771479487991E-12   5.99247277775609E-15   1.00000000000000E+00
      1.00000000000000E+00   0.00000000000000E+00   0.00000000000000E+00   0.00000000000000E+00   0.00000000000000E+00
      0.00000000000000E+00   1.57845957997926E-15
      4.43711111111111E-01
      0.00000000000000E+00   0.00000000000000E+00   0.00000000000000E+00   0.00000000000000E+00  -1.31967082697856E-20
     -6.21553318755364E-12  -6.21553320075034E-12  -1.08558221097196E-14   0.00000000000000E+00   0.00000000000000E+00
      0.00000000000000E+00   0.00000000000000E+00  -3.43335837981905E-20   4.06693697880171E-22  -3.39268901003103E-20
      3.12398286040112E-15   1.33113333333333E+00   1.33113333333333E+00   0.00000000000000E+00   0.00000000000000E+00
      6.21553319971208E-12   3.49651582901808E-20   6.21553323467723E-12   6.15342906929767E-15   1.00000000000000E+00
      1.00000000000000E+00   0.00000000000000E+00   0.00000000000000E+00   0.00000000000000E+00   0.00000000000000E+00
      0.00000000000000E+00   1.57841018002084E-15
      4.68711111111111E-01
      0.00000000000000E+00   0.00000000000000E+00   0.00000000000000E+00   0.00000000000000E+00  -1.32834774115976E-20
     -6.97940811525171E-12  -6.97940812853519E-12  -1.10163910751994E-14   0.00000000000000E+00   0.00000000000000E+00
      0.00000000000000E+00   0.00000000000000E+00  -3.83814245087005E-20   6.48624862257375E-22  -3.77327996464431E-20
      3.12398285948758E-15   1.40613333333333E+00   1.40613333333333E+00   0.00000000000000E+00   0.00000000000000E+00
      6.97940813030771E-12   3.59602936176007E-20   6.97940816626800E-12   6.31404780123825E-15   1.00000000000000E+00
      1.00000000000000E+00   0.00000000000000E+00   0.00000000000000E+00   0.00000000000000E+00   0.00000000000000E+00
      0.00000000000000E+00   1.57836041447360E-15
      4.93711111111111E-01
      0.00000000000000E+00   0.00000000000000E+00   0.00000000000000E+00   0.00000000000000E+00  -1.33697855908444E-20
     -7.71053620051809E-12  -7.71053621388788E-12  -1.11765778511404E-14   0.00000000000000E+00   0.00000000000000E+00
      0.00000000000000E+00   0.00000000000000E+00  -4.22566047590951E-20   4.98114015749943E-22  -4.17584907433451E-20
      3.12398285861313E-15   1.48113333333333E+00   1.48113333333333E+00   0.00000000000000E+00   0.00000000000000E+00
      7.71053621873970E-12   3.69066726439040E-20   7.71053625564637E-12   6.47428470390018E-15   1.00000000000000E+00
      1.00000000000000E+00   0.00000000000000E+00   0.00000000000000E+00   0.00000000000000E+00   0.00000000000000E+00
      0.00000000000000E+00   1.57831028862712E-15
      5.18711111111111E-01
      0.00000000000000E+00   0.00000000000000E+00   0.00000000000000E+00   0.00000000000000E+00  -1.34595550160064E-20
     -8.26207774008026E-12  -8.26207775353981E-12  -1.13363290189774E-14   0.00000000000000E+00   0.00000000000000E+00
      0.00000000000000E+00   0.00000000000000E+00  -4.51828640270101E-20   1.26112533122839E-21  -4.39217386957817E-20
      3.12398285795337E-15   1.55613333333333E+00   1.55613333333333E+00   0.00000000000000E+00   0.00000000000000E+00
      8.26207775973803E-12   3.77235295945365E-20   8.26207779746156E-12   6.63408635492937E-15   1.00000000000000E+00
      1.00000000000000E+00   0.00000000000000E+00   0.00000000000000E+00   0.00000000000000E+00   0.00000000000000E+00
      0.00000000000000E+00   1.57825980609464E-15
      5.43711111111111E-01
      0.00000000000000E+00   0.00000000000000E+00   0.00000000000000E+00   0.00000000000000E+00  -1.35486778686343E-20
     -8.60995021375496E-12  -8.60995022730364E-12  -1.14955805193836E-14   0.00000000000000E+00   0.00000000000000E+00
      0.00000000000000E+00   0.00000000000000E+00  -4.70325619426409E-20   1.34623551274982E-21  -4.56863264298911E-20
      3.12398285753713E-15   1.63113333333333E+00   1.63113333333333E+00   0.00000000000000E+00   0.00000000000000E+00
      8.60995023457115E-12   3.84188176922375E-20   8.60995027298997E-12   6.79338868841103E-15   1.00000000000000E+00
      1.00000000000000E+00   0.00000000000000E+00   0.00000000000000E+00   0.00000000000000E+00   0.00000000000000E+00
      0.00000000000000E+00   1.57820897343542E-15
      5.68711111111111E-01
      0.00000000000000E+00   0.00000000000000E+00   0.00000000000000E+00   0.00000000000000E+00  -1.36337106165966E-20
     -8.81533032377075E-12  -8.81533033740446E-12  -1.16542545949087E-14   0.00000000000000E+00   0.00000000000000E+00
      0.00000000000000E+00   0.00000000000000E+00  -4.81290948519088E-20   2.01851089285405E-21  -4.61105839590548E-20
      3.12398285729127E-15   1.70613333333333E+00   1.70613333333333E+00   0.00000000000000E+00   0.00000000000000E+00
      8.81533034450870E-12   3.90063493375192E-20   8.81533038351505E-12   6.95211393206479E-15   1.00000000000000E+00
      1.00000000000000E+00   0.00000000000000E+00   0.00000000000000E+00   0.00000000000000E+00   0.00000000000000E+00
      0.00000000000000E+00   1.57815780555266E-15
      5.93711111111111E-01
      0.00000000000000E+00   0.00000000000000E+00   0.00000000000000E+00   0.00000000000000E+00  -1.37082399618656E-20
     -8.94811740908727E-12  -8.94811742279551E-12  -1.18122537666606E-14   0.00000000000000E+00   0.00000000000000E+00
      0.00000000000000E+00   0.00000000000000E+00  -4.88423112293774E-20   3.46425518881684E-23  -4.88076686774892E-20
      3.12398285713214E-15   1.78113333333333E+00   1.78113333333333E+00   0.00000000000000E+00   0.00000000000000E+00
      8.94811743206619E-12   3.95369841547638E-20   8.94811747160317E-12   7.11016458117755E-15   1.00000000000000E+00
      1.00000000000000E+00   0.00000000000000E+00   0.00000000000000E+00   0.00000000000000E+00   0.00000000000000E+00
      0.00000000000000E+00   1.57810632835094E-15
      6.18711111111111E-01
      0.00000000000000E+00   0.00000000000000E+00   0.00000000000000E+00   0.00000000000000E+00  -1.37646361188485E-20
     -9.05652665089915E-12  -9.05652666466379E-12  -1.19694501913856E-14   0.00000000000000E+00   0.00000000000000E+00
      0.00000000000000E+00   0.00000000000000E+00  -4.94272966996198E-20  -1.65304994255275E-21  -5.10803466421725E-20
      3.12398285700205E-15   1.85613333333333E+00   1.85613333333333E+00   0.00000000000000E+00   0.00000000000000E+00
      9.05652667571774E-12   4.00263995762911E-20   9.05652671574413E-12   7.26741275804043E-15   1.00000000000000E+00
      1.00000000000000E+00   0.00000000000000E+00   0.00000000000000E+00   0.00000000000000E+00   0.00000000000000E+00
      0.00000000000000E+00   1.57805457634317E-15
      6.43711111111111E-01
      0.00000000000000E+00   0.00000000000000E+00   0.00000000000000E+00   0.00000000000000E+00  -1.38132852424558E-20
     -9.16477070733051E-12  -9.16477072114379E-12  -1.21256689137354E-14   0.00000000000000E+00   0.00000000000000E+00
      0.00000000000000E+00   0.00000000000000E+00  -5.00122740545576E-20  -2.72595936757523E-22  -5.02848699913151E-20
      3.12398285687201E-15   1.93113333333333E+00   1.93113333333333E+00   0.00000000000000E+00   0.00000000000000E+00
      9.16477073094679E-12   4.04818742136730E-20   9.16477077142866E-12   7.42368347052828E-15   1.00000000000000E+00
      1.00000000000000E+00   0.00000000000000E+00   0.00000000000000E+00   0.00000000000000E+00   0.00000000000000E+00
      0.00000000000000E+00   1.57800258633512E-15
      6.68711111111111E-01
      0.00000000000000E+00   0.00000000000000E+00   0.00000000000000E+00   0.00000000000000E+00  -1.38876410880380E-20
     -9.27476562379456E-12  -9.27476563768220E-12  -1.22806633503715E-14   0.00000000000000E+00   0.00000000000000E+00
      0.00000000000000E+00   0.00000000000000E+00  -5.06071098685326E-20  -3.12878698913876E-22  -5.09199885674465E-20
      3.12398285673980E-15   2.00613333333333E+00   2.00613333333333E+00   0.00000000000000E+00   0.00000000000000E+00
      9.27476564769838E-12   4.09037950836072E-20   9.27476568860217E-12   7.57873010275497E-15   1.00000000000000E+00
      1.00000000000000E+00   0.00000000000000E+00   0.00000000000000E+00   0.00000000000000E+00   0.00000000000000E+00
      0.00000000000000E+00   1.57795039087670E-15
      6.93711111111111E-01
      0.00000000000000E+00   0.00000000000000E+00   0.00000000000000E+00   0.00000000000000E+00  -1.39879116154422E-20
     -9.37392978570020E-12  -9.37392979968811E-12  -1.24340810299637E-14   0.00000000000000E+00   0.00000000000000E+00
      0.00000000000000E+00   0.00000000000000E+00  -5.11448095091292E-20  -1.03550641481565E-21  -5.21803159239449E-20
      3.12398285662059E-15   2.08113333333333E+00   2.08113333333333E+00   0.00000000000000E+00   0.00000000000000E+00
      9.37392981058865E-12   4.12797723490969E-20   9.37392985186843E-12   7.73220015897991E-15   1.00000000000000E+00
      1.00000000000000E+00   0.00000000000000E+00   0.00000000000000E+00   0.00000000000000E+00   0.00000000000000E+00
      0.00000000000000E+00   1.57789801436315E-15
      7.18711111111111E-01
      0.00000000000000E+00   0.00000000000000E+00   0.00000000000000E+00   0.00000000000000E+00  -1.42414414107433E-20
     -9.45086807835337E-12  -9.45086809259481E-12  -1.25854215388393E-14   0.00000000000000E+00   0.00000000000000E+00
      0.00000000000000E+00   0.00000000000000E+00  -5.15649549805551E-20   1.60545018555884E-21  -4.99595047949963E-20
      3.12398285652808E-15   2.15613333333333E+00   2.15613333333333E+00   0.00000000000000E+00   0.00000000000000E+00
      9.45086810081755E-12   4.17367749195426E-20   9.45086814255432E-12   7.88359321016521E-15   1.00000000000000E+00
      1.00000000000000E+00   0.00000000000000E+00   0.00000000000000E+00   0.00000000000000E+00   0.00000000000000E+00
      0.00000000000000E+00   1.57784547214602E-15
      7.43711111111111E-01
      0.00000000000000E+00   0.00000000000000E+00   0.00000000000000E+00   0.00000000000000E+00  -1.43610155912414E-20
     -9.50433493607984E-12  -9.50433495044085E-12  -1.27340095684750E-14   0.00000000000000E+00   0.00000000000000E+00
      0.00000000000000E+00   0.00000000000000E+00  -5.18607927409066E-20   5.38748743870562E-23  -5.18069178665196E-20
      3.12398285646379E-15   2.23113333333333E+00   2.23113333333333E+00   0.00000000000000E+00   0.00000000000000E+00
      9.50433496013470E-12   4.21130715419017E-20   9.50433500224777E-12   8.03223394053428E-15   1.00000000000000E+00
      1.00000000000000E+00   0.00000000000000E+00   0.00000000000000E+00   0.00000000000000E+00   0.00000000000000E+00
      0.00000000000000E+00   1.57779277147692E-15
      7.68711111111111E-01
      0.00000000000000E+00   0.00000000000000E+00   0.00000000000000E+00   0.00000000000000E+00  -1.44873117466370E-20
     -9.53985517412025E-12  -9.53985518860756E-12  -1.28790573493285E-14   0.00000000000000E+00   0.00000000000000E+00
      0.00000000000000E+00   0.00000000000000E+00  -5.20617639384672E-20   1.14460963688312E-21  -5.09171543015841E-20
      3.12398285642107E-15   2.30613333333333E+00   2.30613333333333E+00   0.00000000000000E+00   0.00000000000000E+00
      9.53985519705471E-12   4.24700162704666E-20   9.53985523952472E-12   8.17733457986659E-15   1.00000000000000E+00
      1.00000000000000E+00   0.00000000000000E+00   0.00000000000000E+00   0.00000000000000E+00   0.00000000000000E+00
      0.00000000000000E+00   1.57773991304080E-15
      7.93711111111111E-01
      0.00000000000000E+00   0.00000000000000E+00   0.00000000000000E+00   0.00000000000000E+00  -1.46184519319881E-20
     -9.56378151218495E-12  -9.56378152680341E-12  -1.30199045658059E-14   0.00000000000000E+00   0.00000000000000E+00
      0.00000000000000E+00   0.00000000000000E+00  -5.22015057812009E-20   2.50100214854171E-21  -4.97005036326592E-20
      3.12398285639230E-15   2.38113333333333E+00   2.38113333333333E+00   0.00000000000000E+00   0.00000000000000E+00
      9.56378153369714E-12   4.28067677684258E-20   9.56378157650391E-12   8.31823481704932E-15   1.00000000000000E+00
      1.00000000000000E+00   0.00000000000000E+00   0.00000000000000E+00   0.00000000000000E+00   0.00000000000000E+00
      0.00000000000000E+00   1.57768689236428E-15
      8.18711111111112E-01
      0.00000000000000E+00   0.00000000000000E+00   0.00000000000000E+00   0.00000000000000E+00  -1.47509172626792E-20
     -9.58066221161141E-12  -9.58066222636233E-12  -1.31563304474380E-14   0.00000000000000E+00   0.00000000000000E+00
      0.00000000000000E+00   0.00000000000000E+00  -5.23038950065977E-20  -1.32127297117524E-21  -5.36251679777729E-20
      3.12398285637199E-15   2.45613333333333E+00   2.45613333333333E+00   0.00000000000000E+00   0.00000000000000E+00
      9.58066223686342E-12   4.31240817719961E-20   9.58066227998751E-12   8.45471389021715E-15   1.00000000000000E+00
      1.00000000000000E+00   0.00000000000000E+00   0.00000000000000E+00   0.00000000000000E+00   0.00000000000000E+00
      0.00000000000000E+00   1.57763370084889E-15
      8.43711111111112E-01
      0.00000000000000E+00   0.00000000000000E+00   0.00000000000000E+00   0.00000000000000E+00  -1.48806901612915E-20
     -9.59314993841011E-12  -9.59314995329080E-12  -1.32886719580336E-14   0.00000000000000E+00   0.00000000000000E+00
      0.00000000000000E+00   0.00000000000000E+00  -5.23827145439770E-20  -1.58854069133558E-21  -5.39712552353126E-20
      3.12398285635697E-15   2.53113333333333E+00   2.53113333333333E+00   0.00000000000000E+00   0.00000000000000E+00
      9.59314996383723E-12   4.34248237497616E-20   9.59315000726205E-12   8.58710877525443E-15   1.00000000000000E+00
      1.00000000000000E+00   0.00000000000000E+00   0.00000000000000E+00   0.00000000000000E+00   0.00000000000000E+00
      0.00000000000000E+00   1.57758032642224E-15
      8.68711111111112E-01
      0.00000000000000E+00   0.00000000000000E+00   0.00000000000000E+00   0.00000000000000E+00  -1.50049977471061E-20