DF-ISE text

Info {
  version   = 1.0
  type      = xyplot
  datasets  = [
    "time"
    "substrate OuterVoltage" "substrate InnerVoltage" "substrate QuasiFermiPotential" "substrate DisplacementCurrent" "substrate eCurrent"
    "substrate hCurrent" "substrate TotalCurrent" "substrate Charge" "source OuterVoltage" "source InnerVoltage"
    "source QuasiFermiPotential" "source DisplacementCurrent" "source eCurrent" "source hCurrent" "source TotalCurrent"
    "source Charge" "drain OuterVoltage" "drain InnerVoltage" "drain QuasiFermiPotential" "drain DisplacementCurrent"
    "drain eCurrent" "drain hCurrent" "drain TotalCurrent" "drain Charge" "gate OuterVoltage"
    "gate InnerVoltage" "gate QuasiFermiPotential" "gate DisplacementCurrent" "gate eCurrent" "gate hCurrent"
    "gate TotalCurrent" "gate Charge" ]
  functions = [
    Time
    OuterVoltage InnerVoltage QuasiFermiPotential DisplacementCurrent eCurrent
    hCurrent TotalCurrent Charge OuterVoltage InnerVoltage
    QuasiFermiPotential DisplacementCurrent eCurrent hCurrent TotalCurrent
    Charge OuterVoltage InnerVoltage QuasiFermiPotential DisplacementCurrent
    eCurrent hCurrent TotalCurrent Charge OuterVoltage
    InnerVoltage QuasiFermiPotential DisplacementCurrent eCurrent hCurrent
    TotalCurrent Charge ]
}

Data {
      0.00000000000000E+00
      0.00000000000000E+00   0.00000000000000E+00   0.00000000000000E+00   0.00000000000000E+00  -8.63304332472345E-18
     -4.87823760020062E-27  -8.63304332960168E-18  -5.38070860309541E-15   0.00000000000000E+00   0.00000000000000E+00
      0.00000000000000E+00   0.00000000000000E+00   4.24651201537713E-18   4.09150657413573E-27   4.24651201946864E-18
      1.41130003926764E-15   0.00000000000000E+00   0.00000000000000E+00   0.00000000000000E+00   0.00000000000000E+00
      4.38653130934625E-18   7.86792302399118E-28   4.38653131013304E-18   1.41130003926764E-15   3.00000000000000E+00
      3.00000000000000E+00   0.00000000000000E+00   0.00000000000000E+00   0.00000000000000E+00   0.00000000000000E+00
      0.00000000000000E+00   2.55810852456013E-15
      1.00000000000000E-02
      0.00000000000000E+00   0.00000000000000E+00   0.00000000000000E+00   0.00000000000000E+00  -5.46337079030789E-18
     -3.34982803387545E-17  -3.89616511290624E-17  -5.40187889846101E-15   0.00000000000000E+00   0.00000000000000E+00
      0.00000000000000E+00   0.00000000000000E+00  -5.40317730645262E-06  -5.12970523528002E-25  -5.40317730645262E-06
      1.41123417436705E-15   3.00000000000000E-02   3.00000000000000E-02   0.00000000000000E+00   0.00000000000000E+00
      5.40317730649155E-06   2.47819244229675E-20   5.40317730649158E-06   1.44701230459285E-15   3.00000000000000E+00
      3.00000000000000E+00   0.00000000000000E+00   0.00000000000000E+00   0.00000000000000E+00   0.00000000000000E+00
      0.00000000000000E+00   2.54363241950111E-15
      2.33333333333333E-02
      0.00000000000000E+00   0.00000000000000E+00   0.00000000000000E+00   0.00000000000000E+00   8.43200469945534E-17
     -6.94221532453662E-17   1.48978937491872E-17  -5.42974648008448E-15   0.00000000000000E+00   0.00000000000000E+00
      0.00000000000000E+00   0.00000000000000E+00  -1.15135949851763E-05  -1.08310854930052E-24  -1.15135949851763E-05
      1.41115659204296E-15   7.00000000000000E-02   7.00000000000000E-02   0.00000000000000E+00   0.00000000000000E+00
      1.15135949851613E-05   3.31934968956737E-20   1.15135949851614E-05   1.49374373191725E-15   3.00000000000000E+00
      3.00000000000000E+00   0.00000000000000E+00   0.00000000000000E+00   0.00000000000000E+00   0.00000000000000E+00
      0.00000000000000E+00   2.52484615612427E-15
      4.24444444444445E-02
      0.00000000000000E+00   0.00000000000000E+00   0.00000000000000E+00   0.00000000000000E+00   2.09441603561150E-15
     -1.24710724064593E-16   1.96970531154690E-15  -5.46922026479204E-15   0.00000000000000E+00   0.00000000000000E+00
      0.00000000000000E+00   0.00000000000000E+00  -1.82731684355468E-05  -1.71927059396983E-24  -1.82731684355468E-05
      1.41106640887382E-15   1.27333333333333E-01   1.27333333333333E-01   0.00000000000000E+00   0.00000000000000E+00
      1.82731684335771E-05   3.40511455989574E-20   1.82731684335771E-05   1.55895307556778E-15   3.00000000000000E+00
      3.00000000000000E+00   0.00000000000000E+00   0.00000000000000E+00   0.00000000000000E+00   0.00000000000000E+00
      0.00000000000000E+00   2.49920078035044E-15
      6.74444444444444E-02
      0.00000000000000E+00   0.00000000000000E+00   0.00000000000000E+00   0.00000000000000E+00   1.60377798351567E-18
     -2.37547738067532E-16  -2.35943960084016E-16  -5.52082023028729E-15   0.00000000000000E+00   0.00000000000000E+00
      0.00000000000000E+00   0.00000000000000E+00  -2.41035424599031E-05  -2.26865657882947E-24  -2.41035424599031E-05
      1.41098452975783E-15   2.02333333333333E-01   2.02333333333333E-01   0.00000000000000E+00   0.00000000000000E+00
      2.41035424601390E-05  -1.43799822930731E-21   2.41035424601390E-05   1.64118941074642E-15   3.00000000000000E+00
      3.00000000000000E+00   0.00000000000000E+00   0.00000000000000E+00   0.00000000000000E+00   0.00000000000000E+00
      0.00000000000000E+00   2.46864628978304E-15
      9.24444444444444E-02
      0.00000000000000E+00   0.00000000000000E+00   0.00000000000000E+00   0.00000000000000E+00  -2.96546880292602E-18
     -3.73875409403332E-16  -3.76840878206258E-16  -5.57375305141154E-15   0.00000000000000E+00   0.00000000000000E+00
      0.00000000000000E+00   0.00000000000000E+00  -2.73173731844645E-05  -2.57148800012282E-24  -2.73173731844645E-05
      1.41093762792389E-15   2.77333333333333E-01   2.77333333333333E-01   0.00000000000000E+00   0.00000000000000E+00
      2.73173731848413E-05   3.41561001944531E-20   2.73173731848413E-05   1.72038854070261E-15   3.00000000000000E+00
      3.00000000000000E+00   0.00000000000000E+00   0.00000000000000E+00   0.00000000000000E+00   0.00000000000000E+00
      0.00000000000000E+00   2.44242688278504E-15
      1.17444444444444E-01
      0.00000000000000E+00   0.00000000000000E+00   0.00000000000000E+00   0.00000000000000E+00  -4.00990455455562E-18
     -4.62609831378939E-16  -4.66619735933495E-16  -5.62914573052151E-15   0.00000000000000E+00   0.00000000000000E+00
      0.00000000000000E+00   0.00000000000000E+00  -2.88495318849166E-05  -2.71942323432881E-24  -2.88495318849166E-05
      1.41091479848694E-15   3.52333333333333E-01   3.52333333333333E-01   0.00000000000000E+00   0.00000000000000E+00
      2.88495318853832E-05   3.69006964294216E-20   2.88495318853832E-05   1.79735545723631E-15   3.00000000000000E+00
      3.00000000000000E+00   0.00000000000000E+00   0.00000000000000E+00   0.00000000000000E+00   0.00000000000000E+00
      0.00000000000000E+00   2.42087547479826E-15
      1.42444444444444E-01
      0.00000000000000E+00   0.00000000000000E+00   0.00000000000000E+00   0.00000000000000E+00  -3.10668512969333E-17
     -5.09040013015298E-16  -5.40106864312231E-16  -5.68682202178288E-15   0.00000000000000E+00   0.00000000000000E+00
      0.00000000000000E+00   0.00000000000000E+00  -2.95697607920292E-05  -2.82258563776810E-24  -2.95697607920292E-05
      1.41090395880972E-15   4.27333333333333E-01   4.27333333333333E-01   0.00000000000000E+00   0.00000000000000E+00
      2.95697607925692E-05   4.89397789597643E-20   2.95697607925693E-05   1.87291131249306E-15   3.00000000000000E+00
      3.00000000000000E+00   0.00000000000000E+00   0.00000000000000E+00   0.00000000000000E+00   0.00000000000000E+00
      0.00000000000000E+00   2.40300675048011E-15
      1.67444444444444E-01
      0.00000000000000E+00   0.00000000000000E+00   0.00000000000000E+00   0.00000000000000E+00  -2.24222648627084E-16
     -5.43532483323383E-16  -7.67755131950467E-16  -5.74599526048263E-15   0.00000000000000E+00   0.00000000000000E+00
      0.00000000000000E+00   0.00000000000000E+00  -2.99815762912397E-05  -2.82788548181763E-24  -2.99815762912397E-05
      1.41089772927611E-15   5.02333333333333E-01   5.02333333333333E-01   0.00000000000000E+00   0.00000000000000E+00
      2.99815762920074E-05   3.35974511771653E-20   2.99815762920074E-05   1.94763007073236E-15   3.00000000000000E+00
      3.00000000000000E+00   0.00000000000000E+00   0.00000000000000E+00   0.00000000000000E+00   0.00000000000000E+00
      0.00000000000000E+00   2.38746746047416E-15
      1.92444444444444E-01
      0.00000000000000E+00   0.00000000000000E+00   0.00000000000000E+00   0.00000000000000E+00  -5.26312713437134E-16
     -5.74460396657871E-16  -1.10077311009500E-15  -5.80599172875029E-15   0.00000000000000E+00   0.00000000000000E+00
      0.00000000000000E+00   0.00000000000000E+00  -3.02711106410430E-05  -2.85331222414723E-24  -3.02711106410430E-05
      1.41089333561555E-15   5.77333333333333E-01   5.77333333333333E-01   0.00000000000000E+00   0.00000000000000E+00
      3.02711106421437E-05   3.28831642346150E-20   3.02711106421437E-05   2.02180572397213E-15   3.00000000000000E+00
      3.00000000000000E+00   0.00000000000000E+00   0.00000000000000E+00   0.00000000000000E+00   0.00000000000000E+00
      0.00000000000000E+00   2.37329266916262E-15
      2.17444444444444E-01
      0.00000000000000E+00   0.00000000000000E+00   0.00000000000000E+00   0.00000000000000E+00   3.92227470911860E-16
     -6.05633808398765E-16  -2.13406337486904E-16  -5.86656599663819E-15   0.00000000000000E+00   0.00000000000000E+00
      0.00000000000000E+00   0.00000000000000E+00  -3.04975106758389E-05  -2.87560833266777E-24  -3.04975106758389E-05
      1.41088989198696E-15   6.52333333333333E-01   6.52333333333333E-01   0.00000000000000E+00   0.00000000000000E+00
      3.04975106760523E-05   7.03383979602367E-21   3.04975106760523E-05   2.09559280091697E-15   3.00000000000000E+00
      3.00000000000000E+00   0.00000000000000E+00   0.00000000000000E+00   0.00000000000000E+00   0.00000000000000E+00
      0.00000000000000E+00   2.36008330373424E-15
      2.42444444444444E-01
      0.00000000000000E+00   0.00000000000000E+00   0.00000000000000E+00   0.00000000000000E+00   4.03897076212220E-18
     -6.38324676562654E-16  -6.34285705800531E-16  -5.92751375675882E-15   0.00000000000000E+00   0.00000000000000E+00
      0.00000000000000E+00   0.00000000000000E+00  -3.06861004892641E-05  -2.88902591863309E-24  -3.06861004892641E-05
      1.41088701806479E-15   7.27333333333333E-01   7.27333333333333E-01   0.00000000000000E+00   0.00000000000000E+00
      3.06861004898983E-05   3.68224133291338E-20   3.06861004898984E-05   2.16904153185896E-15   3.00000000000000E+00
      3.00000000000000E+00   0.00000000000000E+00   0.00000000000000E+00   0.00000000000000E+00   0.00000000000000E+00
      0.00000000000000E+00   2.34758520683507E-15
      2.67444444444444E-01
      0.00000000000000E+00   0.00000000000000E+00   0.00000000000000E+00   0.00000000000000E+00   1.36757125845410E-18
     -6.73359359517736E-16  -6.71991788259282E-16  -5.98861722073533E-15   0.00000000000000E+00   0.00000000000000E+00
      0.00000000000000E+00   0.00000000000000E+00  -3.08512750860833E-05  -2.90722725533967E-24  -3.08512750860833E-05
      1.41088449692024E-15   8.02333333333333E-01   8.02333333333333E-01   0.00000000000000E+00   0.00000000000000E+00
      3.08512750867553E-05   3.45440911548573E-20   3.08512750867553E-05   2.24214344796543E-15   3.00000000000000E+00
      3.00000000000000E+00   0.00000000000000E+00   0.00000000000000E+00   0.00000000000000E+00   0.00000000000000E+00
      0.00000000000000E+00   2.33558927584966E-15
      2.92444444444444E-01
      0.00000000000000E+00   0.00000000000000E+00   0.00000000000000E+00   0.00000000000000E+00  -7.04973449982120E-19
     -7.16067943654200E-16  -7.16772917104182E-16  -6.04972318730387E-15   0.00000000000000E+00   0.00000000000000E+00
      0.00000000000000E+00   0.00000000000000E+00  -3.10007048845182E-05  -2.91709517755818E-24  -3.10007048845182E-05
      1.41088221283037E-15   8.77333333333333E-01   8.77333333333333E-01   0.00000000000000E+00   0.00000000000000E+00
      3.10007048852349E-05   2.49095841469786E-20   3.10007048852350E-05   2.31487390042678E-15   3.00000000000000E+00
      3.00000000000000E+00   0.00000000000000E+00   0.00000000000000E+00   0.00000000000000E+00   0.00000000000000E+00
      0.00000000000000E+00   2.32396707404673E-15
      3.17444444444444E-01
      0.00000000000000E+00   0.00000000000000E+00   0.00000000000000E+00   0.00000000000000E+00   1.69329633702672E-13
     -7.72801810909881E-16   1.68556831891762E-13  -6.11078978935516E-15   0.00000000000000E+00   0.00000000000000E+00
      0.00000000000000E+00   0.00000000000000E+00  -3.11379106876201E-05  -2.93585129381713E-24  -3.11379106876201E-05
      1.41088011284855E-15   9.52333333333333E-01   9.52333333333333E-01   0.00000000000000E+00   0.00000000000000E+00
      3.11379105190633E-05  -2.25438143662778E-20   3.11379105190633E-05   2.38722798739964E-15   3.00000000000000E+00
      3.00000000000000E+00   0.00000000000000E+00   0.00000000000000E+00   0.00000000000000E+00   0.00000000000000E+00
      0.00000000000000E+00   2.31268168910698E-15
      3.42444444444444E-01
      0.00000000000000E+00   0.00000000000000E+00   0.00000000000000E+00   0.00000000000000E+00  -3.48760720093105E-18
     -8.49590002019624E-16  -8.53077609220555E-16  -6.17187181478501E-15   0.00000000000000E+00   0.00000000000000E+00
      0.00000000000000E+00   0.00000000000000E+00  -3.12642062961887E-05  -2.94515868050470E-24  -3.12642062961887E-05
      1.41087817752641E-15   1.02733333333333E+00   1.02733333333333E+00   0.00000000000000E+00   0.00000000000000E+00
      3.12642062970417E-05   3.67673048337764E-20   3.12642062970417E-05   2.45922873453452E-15   3.00000000000000E+00
      3.00000000000000E+00   0.00000000000000E+00   0.00000000000000E+00   0.00000000000000E+00   0.00000000000000E+00
      0.00000000000000E+00   2.30176490272409E-15
      3.67444444444445E-01
      0.00000000000000E+00   0.00000000000000E+00   0.00000000000000E+00   0.00000000000000E+00   1.32070324959934E-13
     -9.49031832889983E-16   1.31121293127044E-13  -6.23308185714123E-15   0.00000000000000E+00   0.00000000000000E+00
      0.00000000000000E+00   0.00000000000000E+00  -3.13800132098024E-05  -2.95745063214952E-24  -3.13800132098024E-05
      1.41087640096706E-15   1.10233333333333E+00   1.10233333333333E+00   0.00000000000000E+00   0.00000000000000E+00
      3.13800130786812E-05  -7.54337259606556E-20   3.13800130786811E-05   2.53091951171021E-15   3.00000000000000E+00
      3.00000000000000E+00   0.00000000000000E+00   0.00000000000000E+00   0.00000000000000E+00   0.00000000000000E+00
      0.00000000000000E+00   2.29128594446396E-15
      3.92444444444445E-01
      0.00000000000000E+00   0.00000000000000E+00   0.00000000000000E+00   0.00000000000000E+00  -2.56576936220552E-18
     -1.07361915975872E-15  -1.07618492912092E-15  -6.29449992871771E-15   0.00000000000000E+00   0.00000000000000E+00
      0.00000000000000E+00   0.00000000000000E+00  -3.14859757038548E-05  -2.96595576479381E-24  -3.14859757038548E-05
      1.41087477377890E-15   1.17733333333333E+00   1.17733333333333E+00   0.00000000000000E+00   0.00000000000000E+00
      3.14859757049310E-05   3.74979509885921E-20   3.14859757049310E-05   2.60232847590448E-15   3.00000000000000E+00
      3.00000000000000E+00   0.00000000000000E+00   0.00000000000000E+00   0.00000000000000E+00   0.00000000000000E+00
      0.00000000000000E+00   2.28129667903434E-15
      4.17444444444445E-01
      0.00000000000000E+00   0.00000000000000E+00   0.00000000000000E+00   0.00000000000000E+00   2.52393714407893E-14
     -1.22150410356514E-15   2.40178673372241E-14  -6.35612036906146E-15   0.00000000000000E+00   0.00000000000000E+00
      0.00000000000000E+00   0.00000000000000E+00  -3.15831284020247E-05  -2.97913698265362E-24  -3.15831284020247E-05
      1.41087328048866E-15   1.25233333333333E+00   1.25233333333333E+00   0.00000000000000E+00   0.00000000000000E+00
      3.15831283780081E-05  -1.25659244503899E-18   3.15831283780068E-05   2.67343740103466E-15   3.00000000000000E+00
      3.00000000000000E+00   0.00000000000000E+00   0.00000000000000E+00   0.00000000000000E+00   0.00000000000000E+00
      0.00000000000000E+00   2.27180968753814E-15
      4.42444444444445E-01
      0.00000000000000E+00   0.00000000000000E+00   0.00000000000000E+00   0.00000000000000E+00   4.08659132186301E-10
     -1.37584249943047E-15   4.08657756343802E-10  -6.41778926819563E-15   0.00000000000000E+00   0.00000000000000E+00
      0.00000000000000E+00   0.00000000000000E+00  -3.16728910441823E-05  -2.98894936806306E-24  -3.16728910441823E-05
      1.41087189960281E-15   1.32733333333333E+00   1.32733333333333E+00   0.00000000000000E+00   0.00000000000000E+00
      3.16724823864264E-05  -3.79305451800181E-19   3.16724823864260E-05   2.74413285853422E-15   3.00000000000000E+00
      3.00000000000000E+00   0.00000000000000E+00   0.00000000000000E+00   0.00000000000000E+00   0.00000000000000E+00
      0.00000000000000E+00   2.26278451005860E-15
      4.67444444444445E-01
      0.00000000000000E+00   0.00000000000000E+00   0.00000000000000E+00   0.00000000000000E+00   2.38981565072351E-15
     -1.49873896551576E-15   8.91076685207748E-16  -6.47918249684500E-15   0.00000000000000E+00   0.00000000000000E+00
      0.00000000000000E+00   0.00000000000000E+00  -3.17567939323831E-05  -2.99421866103399E-24  -3.17567939323831E-05
      1.41087060783907E-15   1.40233333333333E+00   1.40233333333333E+00   0.00000000000000E+00   0.00000000000000E+00
      3.17567939314920E-05   3.71709455161369E-20   3.17567939314920E-05   2.81416927902200E-15   3.00000000000000E+00
      3.00000000000000E+00   0.00000000000000E+00   0.00000000000000E+00   0.00000000000000E+00   0.00000000000000E+00
      0.00000000000000E+00   2.25414260998396E-15
      4.92444444444445E-01
      0.00000000000000E+00   0.00000000000000E+00   0.00000000000000E+00   0.00000000000000E+00   1.43511696092105E-16
     -1.57838434515124E-15  -1.43487264905914E-15  -6.53980559363868E-15   0.00000000000000E+00   0.00000000000000E+00
      0.00000000000000E+00   0.00000000000000E+00  -3.18364523192566E-05  -3.00261563484677E-24  -3.18364523192566E-05
      1.41086938049980E-15   1.47733333333333E+00   1.47733333333333E+00   0.00000000000000E+00   0.00000000000000E+00
      3.18364523206900E-05   1.39188584906486E-18   3.18364523206914E-05   2.88317014726899E-15   3.00000000000000E+00
      3.00000000000000E+00   0.00000000000000E+00   0.00000000000000E+00   0.00000000000000E+00   0.00000000000000E+00
      0.00000000000000E+00   2.24576606586989E-15
      5.17444444444445E-01
      0.00000000000000E+00   0.00000000000000E+00   0.00000000000000E+00   0.00000000000000E+00   8.89038607661356E-19
     -1.62370222529104E-15  -1.62281318668338E-15  -6.59925003284412E-15   0.00000000000000E+00   0.00000000000000E+00
      0.00000000000000E+00   0.00000000000000E+00  -3.19131916393416E-05  -3.00614297037712E-24  -3.19131916393416E-05
      1.41086819728651E-15   1.55233333333333E+00   1.55233333333333E+00   0.00000000000000E+00   0.00000000000000E+00
      3.19131916409643E-05   6.95009403277606E-20   3.19131916409644E-05   2.95083541574538E-15   3.00000000000000E+00
      3.00000000000000E+00   0.00000000000000E+00   0.00000000000000E+00   0.00000000000000E+00   0.00000000000000E+00
      0.00000000000000E+00   2.23754641981222E-15
      5.42444444444445E-01
      0.00000000000000E+00   0.00000000000000E+00   0.00000000000000E+00   0.00000000000000E+00  -9.25053786311798E-19
     -1.65427166908544E-15  -1.65519672287175E-15  -6.65743335109297E-15   0.00000000000000E+00   0.00000000000000E+00
      0.00000000000000E+00   0.00000000000000E+00  -3.19876638165661E-05  -3.01198942586032E-24  -3.19876638165661E-05
      1.41086704823103E-15   1.62733333333333E+00   1.62733333333333E+00   0.00000000000000E+00   0.00000000000000E+00
      3.19876638182212E-05   5.26089952199451E-20   3.19876638182212E-05   3.01713320270098E-15   3.00000000000000E+00
      3.00000000000000E+00   0.00000000000000E+00   0.00000000000000E+00   0.00000000000000E+00   0.00000000000000E+00
      0.00000000000000E+00   2.22943310016096E-15
      5.67444444444445E-01
      0.00000000000000E+00   0.00000000000000E+00   0.00000000000000E+00   0.00000000000000E+00  -1.85807095764480E-12
     -1.67656581554259E-15  -1.85974752346034E-12  -6.71453234020900E-15   0.00000000000000E+00   0.00000000000000E+00
      0.00000000000000E+00   0.00000000000000E+00  -3.20600697076403E-05  -3.02294221302590E-24  -3.20600697076403E-05
      1.41086593030187E-15   1.70233333333333E+00   1.70233333333333E+00   0.00000000000000E+00   0.00000000000000E+00
      3.20600715673883E-05  -4.46968491253661E-19   3.20600715673878E-05   3.08224769044132E-15   3.00000000000000E+00
      3.00000000000000E+00   0.00000000000000E+00   0.00000000000000E+00   0.00000000000000E+00   0.00000000000000E+00
      0.00000000000000E+00   2.22141871946580E-15
      5.92444444444445E-01
      0.00000000000000E+00   0.00000000000000E+00   0.00000000000000E+00   0.00000000000000E+00  -2.99200369452176E-12
     -1.69371678162067E-15  -2.99369741130338E-12  -6.77080325999826E-15   0.00000000000000E+00   0.00000000000000E+00
      0.00000000000000E+00   0.00000000000000E+00  -3.21304307873137E-05  -3.02885004134168E-24  -3.21304307873137E-05
      1.41086484322988E-15   1.77733333333333E+00   1.77733333333333E+00   0.00000000000000E+00   0.00000000000000E+00
      3.21304337810115E-05  -3.39806454274555E-19   3.21304337810111E-05   3.14642460237092E-15   3.00000000000000E+00
      3.00000000000000E+00   0.00000000000000E+00   0.00000000000000E+00   0.00000000000000E+00   0.00000000000000E+00
      0.00000000000000E+00   2.21351381439745E-15
      6.17444444444445E-01
      0.00000000000000E+00   0.00000000000000E+00   0.00000000000000E+00   0.00000000000000E+00  -3.46568931502840E-12
     -1.70540506479773E-15  -3.46739472009320E-12  -6.82646089439619E-15   0.00000000000000E+00   0.00000000000000E+00
      0.00000000000000E+00   0.00000000000000E+00  -3.21987379836826E-05  -3.03300653389512E-24  -3.21987379836826E-05
      1.41086378721584E-15   1.85233333333333E+00   1.85233333333333E+00   0.00000000000000E+00   0.00000000000000E+00
      3.21987414510781E-05  -7.17738324734035E-19   3.21987414510773E-05   3.20986547578023E-15   3.00000000000000E+00
      3.00000000000000E+00   0.00000000000000E+00   0.00000000000000E+00   0.00000000000000E+00   0.00000000000000E+00
      0.00000000000000E+00   2.20573163140013E-15
      6.42444444444445E-01
      0.00000000000000E+00   0.00000000000000E+00   0.00000000000000E+00   0.00000000000000E+00   2.62946726979926E-18
     -1.71495764288759E-15  -1.71232817561779E-15  -6.88165094399646E-15   0.00000000000000E+00   0.00000000000000E+00
      0.00000000000000E+00   0.00000000000000E+00  -3.22650735129529E-05  -3.03637559803760E-24  -3.22650735129529E-05
      1.41086276104663E-15   1.92733333333333E+00   1.92733333333333E+00   0.00000000000000E+00   0.00000000000000E+00
      3.22650735146652E-05   3.68379043526109E-20   3.22650735146653E-05   3.27271428599472E-15   3.00000000000000E+00
      3.00000000000000E+00   0.00000000000000E+00   0.00000000000000E+00   0.00000000000000E+00   0.00000000000000E+00
      0.00000000000000E+00   2.19807389695511E-15
      6.67444444444445E-01
      0.00000000000000E+00   0.00000000000000E+00   0.00000000000000E+00   0.00000000000000E+00  -2.56013085623783E-19
     -1.72256869372029E-15  -1.72282470680592E-15  -6.93647384226566E-15   0.00000000000000E+00   0.00000000000000E+00
      0.00000000000000E+00   0.00000000000000E+00  -3.23296836160182E-05  -3.04638551022734E-24  -3.23296836160182E-05
      1.41086176096489E-15   2.00233333333333E+00   2.00233333333333E+00   0.00000000000000E+00   0.00000000000000E+00
      3.23296836177409E-05   6.29629967973311E-20   3.23296836177410E-05   3.33509104421914E-15   3.00000000000000E+00
      3.00000000000000E+00   0.00000000000000E+00   0.00000000000000E+00   0.00000000000000E+00   0.00000000000000E+00
      0.00000000000000E+00   2.19052103708164E-15
      6.92444444444445E-01
      0.00000000000000E+00   0.00000000000000E+00   0.00000000000000E+00   0.00000000000000E+00   2.83488517224760E-14
     -1.73087552396862E-15   2.66179761985074E-14  -6.99100736313597E-15   0.00000000000000E+00   0.00000000000000E+00
      0.00000000000000E+00   0.00000000000000E+00  -3.23929112494096E-05  -3.05563576547370E-24  -3.23929112494096E-05
      1.41086078170416E-15   2.07733333333333E+00   2.07733333333333E+00   0.00000000000000E+00   0.00000000000000E+00
      3.23929112227915E-05   1.01634514195762E-19   3.23929112227916E-05   3.39710740888205E-15   3.00000000000000E+00
      3.00000000000000E+00   0.00000000000000E+00   0.00000000000000E+00   0.00000000000000E+00   0.00000000000000E+00
      0.00000000000000E+00   2.18303917254978E-15
      7.17444444444445E-01
      0.00000000000000E+00   0.00000000000000E+00   0.00000000000000E+00   0.00000000000000E+00   3.88124298301549E-15
     -1.74104916382679E-15   2.14019381918870E-15  -7.04530908586894E-15   0.00000000000000E+00   0.00000000000000E+00
      0.00000000000000E+00   0.00000000000000E+00  -3.24550598911063E-05  -3.06084075965180E-24  -3.24550598911063E-05
      1.41085981859712E-15   2.15233333333333E+00   2.15233333333333E+00   0.00000000000000E+00   0.00000000000000E+00
      3.24550598889660E-05   5.62502499312131E-20   3.24550598889660E-05   3.45885271624496E-15   3.00000000000000E+00
      3.00000000000000E+00   0.00000000000000E+00   0.00000000000000E+00   0.00000000000000E+00   0.00000000000000E+00
      0.00000000000000E+00   2.17559655102686E-15
      7.42444444444445E-01
      0.00000000000000E+00   0.00000000000000E+00   0.00000000000000E+00   0.00000000000000E+00   2.87604916388090E-16
     -1.75339011620654E-15  -1.46578519981845E-15  -7.09941358068711E-15   0.00000000000000E+00   0.00000000000000E+00
      0.00000000000000E+00   0.00000000000000E+00  -3.25163219379169E-05  -3.06617492581628E-24  -3.25163219379169E-05
      1.41085886868781E-15   2.22733333333333E+00   2.22733333333333E+00   0.00000000000000E+00   0.00000000000000E+00
      3.25163219393826E-05   1.12111647861900E-19   3.25163219393827E-05   3.52038158955144E-15   3.00000000000000E+00
      3.00000000000000E+00   0.00000000000000E+00   0.00000000000000E+00   0.00000000000000E+00   0.00000000000000E+00
      0.00000000000000E+00   2.16817312244787E-15
      7.67444444444445E-01
      0.00000000000000E+00   0.00000000000000E+00   0.00000000000000E+00   0.00000000000000E+00   1.42326139010636E-17
     -1.76702868736181E-15  -1.75279607346074E-15  -7.15333714550476E-15   0.00000000000000E+00   0.00000000000000E+00
      0.00000000000000E+00   0.00000000000000E+00  -3.25768016682603E-05  -3.06889907796627E-24  -3.25768016682603E-05
      1.41085793038069E-15   2.30233333333333E+00   2.30233333333333E+00   0.00000000000000E+00   0.00000000000000E+00
      3.25768016700131E-05   5.02607146902398E-20   3.25768016700131E-05   3.58172057429516E-15   3.00000000000000E+00
      3.00000000000000E+00   0.00000000000000E+00   0.00000000000000E+00   0.00000000000000E+00   0.00000000000000E+00
      0.00000000000000E+00   2.16075864082891E-15
      7.92444444444445E-01
      0.00000000000000E+00   0.00000000000000E+00   0.00000000000000E+00   0.00000000000000E+00   1.36863395245142E-18
     -1.78121776042704E-15  -1.77984912647459E-15  -7.20708462281395E-15   0.00000000000000E+00   0.00000000000000E+00
      0.00000000000000E+00   0.00000000000000E+00  -3.26365553769755E-05  -3.07589345046625E-24  -3.26365553769755E-05
      1.41085700282140E-15   2.37733333333333E+00   2.37733333333333E+00   0.00000000000000E+00   0.00000000000000E+00
      3.26365553787553E-05   3.68684382425313E-20   3.26365553787553E-05   3.64287921945421E-15   3.00000000000000E+00
      3.00000000000000E+00   0.00000000000000E+00   0.00000000000000E+00   0.00000000000000E+00   0.00000000000000E+00
      0.00000000000000E+00   2.15334840053836E-15
      8.17444444444445E-01
      0.00000000000000E+00   0.00000000000000E+00   0.00000000000000E+00   0.00000000000000E+00   1.94039054539374E-18
     -1.79494397716625E-15  -1.79300358662086E-15  -7.26065494790848E-15   0.00000000000000E+00   0.00000000000000E+00
      0.00000000000000E+00   0.00000000000000E+00  -3.26956178096295E-05  -3.08334901050274E-24  -3.26956178096295E-05
      1.41085608548810E-15   2.45233333333333E+00   2.45233333333333E+00   0.00000000000000E+00   0.00000000000000E+00
      3.26956178114224E-05   6.37395182282177E-20   3.26956178114225E-05   3.70385851195593E-15   3.00000000000000E+00
      3.00000000000000E+00   0.00000000000000E+00   0.00000000000000E+00   0.00000000000000E+00   0.00000000000000E+00
      0.00000000000000E+00   2.14594035046444E-15
      8.42444444444445E-01
      0.00000000000000E+00   0.00000000000000E+00   0.00000000000000E+00   0.00000000000000E+00  -8.05645962898896E-13
     -1.80846124704350E-15  -8.07454424145939E-13  -7.31404509201714E-15   0.00000000000000E+00   0.00000000000000E+00
      0.00000000000000E+00   0.00000000000000E+00  -3.27540156854264E-05  -3.08936050880212E-24  -3.27540156854264E-05
      1.41085517798334E-15   2.52733333333333E+00   2.52733333333333E+00   0.00000000000000E+00   0.00000000000000E+00
      3.27540164928808E-05  -4.83699541617053E-20   3.27540164928808E-05   3.76465631442580E-15   3.00000000000000E+00
      3.00000000000000E+00   0.00000000000000E+00   0.00000000000000E+00   0.00000000000000E+00   0.00000000000000E+00
      0.00000000000000E+00   2.13853359960800E-15
      8.67444444444445E-01
      0.00000000000000E+00   0.00000000000000E+00   0.00000000000000E+00   0.00000000000000E+00   8.79988346422638E-14