DF-ISE text

Info {
  version   = 1.0
  type      = xyplot
  datasets  = [
    "time"
    "substrate OuterVoltage" "substrate InnerVoltage" "substrate QuasiFermiPotential" "substrate DisplacementCurrent" "substrate eCurrent"
    "substrate hCurrent" "substrate TotalCurrent" "substrate Charge" "source OuterVoltage" "source InnerVoltage"
    "source QuasiFermiPotential" "source DisplacementCurrent" "source eCurrent" "source hCurrent" "source TotalCurrent"
    "source Charge" "drain OuterVoltage" "drain InnerVoltage" "drain QuasiFermiPotential" "drain DisplacementCurrent"
    "drain eCurrent" "drain hCurrent" "drain TotalCurrent" "drain Charge" "gate OuterVoltage"
    "gate InnerVoltage" "gate QuasiFermiPotential" "gate DisplacementCurrent" "gate eCurrent" "gate hCurrent"
    "gate TotalCurrent" "gate Charge" ]
  functions = [
    Time
    OuterVoltage InnerVoltage QuasiFermiPotential DisplacementCurrent eCurrent
    hCurrent TotalCurrent Charge OuterVoltage InnerVoltage
    QuasiFermiPotential DisplacementCurrent eCurrent hCurrent TotalCurrent
    Charge OuterVoltage InnerVoltage QuasiFermiPotential DisplacementCurrent
    eCurrent hCurrent TotalCurrent Charge OuterVoltage
    InnerVoltage QuasiFermiPotential DisplacementCurrent eCurrent hCurrent
    TotalCurrent Charge ]
}

Data {
      0.00000000000000E+00
      0.00000000000000E+00   0.00000000000000E+00   0.00000000000000E+00   0.00000000000000E+00  -5.97792627091597E-18
     -3.82238835374501E-27  -5.97792627473836E-18  -5.38046888592154E-15   0.00000000000000E+00   0.00000000000000E+00
      0.00000000000000E+00   0.00000000000000E+00   2.86646765008095E-18  -9.95295487820489E-28   2.86646764908566E-18
      1.41118062234767E-15   0.00000000000000E+00   0.00000000000000E+00   0.00000000000000E+00   0.00000000000000E+00
      3.11145862083485E-18   4.81785553383366E-27   3.11145862565271E-18   1.41118062234767E-15   3.00000000000000E+00
      3.00000000000000E+00   0.00000000000000E+00   0.00000000000000E+00   0.00000000000000E+00   0.00000000000000E+00
      0.00000000000000E+00   2.55810764122621E-15
      1.00000000000000E-02
      0.00000000000000E+00   0.00000000000000E+00   0.00000000000000E+00   0.00000000000000E+00  -8.94686727918852E-18
     -3.34840692054388E-17  -4.24309364846273E-17  -5.40163930150296E-15   0.00000000000000E+00   0.00000000000000E+00
      0.00000000000000E+00   0.00000000000000E+00  -5.40343017174040E-06  -5.15306184107681E-25  -5.40343017174040E-06
      1.41111475524383E-15   3.00000000000000E-02   3.00000000000000E-02   0.00000000000000E+00   0.00000000000000E+00
      5.40343017178280E-06   2.47820145230068E-20   5.40343017178283E-06   1.44689305191617E-15   3.00000000000000E+00
      3.00000000000000E+00   0.00000000000000E+00   0.00000000000000E+00   0.00000000000000E+00   0.00000000000000E+00
      0.00000000000000E+00   2.54363149434297E-15
      2.33333333333333E-02
      0.00000000000000E+00   0.00000000000000E+00   0.00000000000000E+00   0.00000000000000E+00   8.23683137129036E-17
     -6.93858166376916E-17   1.29824970752120E-17  -5.42950749885644E-15   0.00000000000000E+00   0.00000000000000E+00
      0.00000000000000E+00   0.00000000000000E+00  -1.15141677890032E-05  -1.08279015227045E-24  -1.15141677890032E-05
      1.41103716976482E-15   7.00000000000000E-02   7.00000000000000E-02   0.00000000000000E+00   0.00000000000000E+00
      1.15141677889902E-05   3.31936366990572E-20   1.15141677889902E-05   1.49362518031434E-15   3.00000000000000E+00
      3.00000000000000E+00   0.00000000000000E+00   0.00000000000000E+00   0.00000000000000E+00   0.00000000000000E+00
      0.00000000000000E+00   2.52484514877728E-15
      4.24444444444445E-02
      0.00000000000000E+00   0.00000000000000E+00   0.00000000000000E+00   0.00000000000000E+00   2.08759319297997E-15
     -1.24622786224178E-16   1.96297040675579E-15  -5.46898275358015E-15   0.00000000000000E+00   0.00000000000000E+00
      0.00000000000000E+00   0.00000000000000E+00  -1.82741614007583E-05  -1.72540521518214E-24  -1.82741614007583E-05
      1.41094698183120E-15   1.27333333333333E-01   1.27333333333333E-01   0.00000000000000E+00   0.00000000000000E+00
      1.82741613987953E-05   3.40514447698404E-20   1.82741613987953E-05   1.55883618750107E-15   3.00000000000000E+00
      3.00000000000000E+00   0.00000000000000E+00   0.00000000000000E+00   0.00000000000000E+00   0.00000000000000E+00
      0.00000000000000E+00   2.49919958424787E-15
      6.74444444444444E-02
      0.00000000000000E+00   0.00000000000000E+00   0.00000000000000E+00   0.00000000000000E+00   4.18983242110220E-19
     -2.37382163606808E-16  -2.36963180364698E-16  -5.52058489513557E-15   0.00000000000000E+00   0.00000000000000E+00
      0.00000000000000E+00   0.00000000000000E+00  -2.41050087475726E-05  -2.27160626158807E-24  -2.41050087475726E-05
      1.41086509657669E-15   2.02333333333333E-01   2.02333333333333E-01   0.00000000000000E+00   0.00000000000000E+00
      2.41050087478095E-05  -1.33728866172737E-21   2.41050087478095E-05   1.64107512498429E-15   3.00000000000000E+00
      3.00000000000000E+00   0.00000000000000E+00   0.00000000000000E+00   0.00000000000000E+00   0.00000000000000E+00
      0.00000000000000E+00   2.46864467357459E-15
      9.24444444444444E-02
      0.00000000000000E+00   0.00000000000000E+00   0.00000000000000E+00   0.00000000000000E+00   7.51063842714685E-19
     -3.73738136655181E-16  -3.72987072812466E-16  -5.57351929762955E-15   0.00000000000000E+00   0.00000000000000E+00
      0.00000000000000E+00   0.00000000000000E+00  -2.73192077379748E-05  -2.57486091302073E-24  -2.73192077379748E-05
      1.41081818951058E-15   2.77333333333333E-01   2.77333333333333E-01   0.00000000000000E+00   0.00000000000000E+00
      2.73192077383477E-05   3.41713276961448E-20   2.73192077383477E-05   1.72027647932122E-15   3.00000000000000E+00
      3.00000000000000E+00   0.00000000000000E+00   0.00000000000000E+00   0.00000000000000E+00   0.00000000000000E+00
      0.00000000000000E+00   2.44242462879776E-15
      1.17444444444444E-01
      0.00000000000000E+00   0.00000000000000E+00   0.00000000000000E+00   0.00000000000000E+00  -1.75872599028478E-18
     -4.62557656772241E-16  -4.64316382762526E-16  -5.62891269406177E-15   0.00000000000000E+00   0.00000000000000E+00
      0.00000000000000E+00   0.00000000000000E+00  -2.88516017685133E-05  -2.71792945272074E-24  -2.88516017685133E-05
      1.41079535658069E-15   3.52333333333333E-01   3.52333333333333E-01   0.00000000000000E+00   0.00000000000000E+00
      2.88516017689776E-05   3.69007224625672E-20   2.88516017689776E-05   1.79724482679160E-15   3.00000000000000E+00
      3.00000000000000E+00   0.00000000000000E+00   0.00000000000000E+00   0.00000000000000E+00   0.00000000000000E+00
      0.00000000000000E+00   2.42087251068948E-15
      1.42444444444444E-01
      0.00000000000000E+00   0.00000000000000E+00   0.00000000000000E+00   0.00000000000000E+00  -3.51863786146557E-17
     -5.09023499906333E-16  -5.44209878520989E-16  -5.68658917646031E-15   0.00000000000000E+00   0.00000000000000E+00
      0.00000000000000E+00   0.00000000000000E+00  -2.95719460666063E-05  -2.82260411840179E-24  -2.95719460666063E-05
      1.41078451515727E-15   4.27333333333333E-01   4.27333333333333E-01   0.00000000000000E+00   0.00000000000000E+00
      2.95719460671504E-05   4.84810985695171E-20   2.95719460671505E-05   1.87280142894509E-15   3.00000000000000E+00
      3.00000000000000E+00   0.00000000000000E+00   0.00000000000000E+00   0.00000000000000E+00   0.00000000000000E+00
      0.00000000000000E+00   2.40300323235795E-15
      1.67444444444444E-01
      0.00000000000000E+00   0.00000000000000E+00   0.00000000000000E+00   0.00000000000000E+00  -2.18412788980848E-16
     -5.43527253343589E-16  -7.61940042324437E-16  -5.74576238630052E-15   0.00000000000000E+00   0.00000000000000E+00
      0.00000000000000E+00   0.00000000000000E+00  -2.99838162676684E-05  -2.82526388868742E-24  -2.99838162676684E-05
      1.41077828478621E-15   5.02333333333333E-01   5.02333333333333E-01   0.00000000000000E+00   0.00000000000000E+00
      2.99838162684302E-05   3.36000206520425E-20   2.99838162684303E-05   1.94752052334669E-15   3.00000000000000E+00
      3.00000000000000E+00   0.00000000000000E+00   0.00000000000000E+00   0.00000000000000E+00   0.00000000000000E+00
      0.00000000000000E+00   2.38746357816762E-15
      1.92444444444444E-01
      0.00000000000000E+00   0.00000000000000E+00   0.00000000000000E+00   0.00000000000000E+00  -5.17284565204759E-16
     -5.74468349183894E-16  -1.09175291438865E-15  -5.80575874363035E-15   0.00000000000000E+00   0.00000000000000E+00
      0.00000000000000E+00   0.00000000000000E+00  -3.02733821878919E-05  -2.85320450465459E-24  -3.02733821878919E-05
      1.41077389063794E-15   5.77333333333333E-01   5.77333333333333E-01   0.00000000000000E+00   0.00000000000000E+00
      3.02733821889836E-05   3.28925148849485E-20   3.02733821889836E-05   2.02169630854076E-15   3.00000000000000E+00
      3.00000000000000E+00   0.00000000000000E+00   0.00000000000000E+00   0.00000000000000E+00   0.00000000000000E+00
      0.00000000000000E+00   2.37328854445164E-15
      2.17444444444444E-01
      0.00000000000000E+00   0.00000000000000E+00   0.00000000000000E+00   0.00000000000000E+00   3.91200395570780E-16
     -6.05662054625518E-16  -2.14461659054739E-16  -5.86633286010102E-15   0.00000000000000E+00   0.00000000000000E+00
      0.00000000000000E+00   0.00000000000000E+00  -3.04998044911500E-05  -2.87112107756091E-24  -3.04998044911500E-05
      1.41077044666310E-15   6.52333333333333E-01   6.52333333333333E-01   0.00000000000000E+00   0.00000000000000E+00
      3.04998044913645E-05   7.19496717297511E-21   3.04998044913645E-05   2.09548342689952E-15   3.00000000000000E+00
      3.00000000000000E+00   0.00000000000000E+00   0.00000000000000E+00   0.00000000000000E+00   0.00000000000000E+00
      0.00000000000000E+00   2.36007898653840E-15
      2.42444444444444E-01
      0.00000000000000E+00   0.00000000000000E+00   0.00000000000000E+00   0.00000000000000E+00   1.22064217674488E-18
     -6.38383260600872E-16  -6.37162618424127E-16  -5.92728049503174E-15   0.00000000000000E+00   0.00000000000000E+00
      0.00000000000000E+00   0.00000000000000E+00  -3.06884110424333E-05  -2.89398842279770E-24  -3.06884110424333E-05
      1.41076757247910E-15   7.27333333333333E-01   7.27333333333333E-01   0.00000000000000E+00   0.00000000000000E+00
      3.06884110430704E-05   3.68223362775762E-20   3.06884110430704E-05   2.16893217591005E-15   3.00000000000000E+00
      3.00000000000000E+00   0.00000000000000E+00   0.00000000000000E+00   0.00000000000000E+00   0.00000000000000E+00
      0.00000000000000E+00   2.34758074664258E-15
      2.67444444444444E-01
      0.00000000000000E+00   0.00000000000000E+00   0.00000000000000E+00   0.00000000000000E+00   5.56955264610367E-14
     -6.73401473122877E-16   5.50221249879138E-14  -5.98838387660171E-15   0.00000000000000E+00   0.00000000000000E+00
      0.00000000000000E+00   0.00000000000000E+00  -3.08535991166031E-05  -2.90714481591353E-24  -3.08535991166031E-05
      1.41076505112252E-15   8.02333333333333E-01   8.02333333333333E-01   0.00000000000000E+00   0.00000000000000E+00
      3.08535990615810E-05  -2.59069778614279E-20   3.08535990615810E-05   2.24203411914326E-15   3.00000000000000E+00
      3.00000000000000E+00   0.00000000000000E+00   0.00000000000000E+00   0.00000000000000E+00   0.00000000000000E+00
      0.00000000000000E+00   2.33558470633592E-15
      2.92444444444444E-01
      0.00000000000000E+00   0.00000000000000E+00   0.00000000000000E+00   0.00000000000000E+00  -1.01667684851258E-18
     -7.16241787081738E-16  -7.17258463930251E-16  -6.04948980148872E-15   0.00000000000000E+00   0.00000000000000E+00
      0.00000000000000E+00   0.00000000000000E+00  -3.10030406567459E-05  -2.91709663587217E-24  -3.10030406567459E-05
      1.41076276684736E-15   8.77333333333333E-01   8.77333333333334E-01   0.00000000000000E+00   0.00000000000000E+00
      3.10030406574631E-05   3.56334188399568E-20   3.10030406574632E-05   2.31476462251326E-15   3.00000000000000E+00
      3.00000000000000E+00   0.00000000000000E+00   0.00000000000000E+00   0.00000000000000E+00   0.00000000000000E+00
      0.00000000000000E+00   2.32396241212811E-15
      3.17444444444444E-01
      0.00000000000000E+00   0.00000000000000E+00   0.00000000000000E+00   0.00000000000000E+00   4.46704638936084E-18
     -7.73092147209921E-16  -7.68625100820560E-16  -6.11055639880427E-15   0.00000000000000E+00   0.00000000000000E+00
      0.00000000000000E+00   0.00000000000000E+00  -3.11402569962910E-05  -2.93369301966637E-24  -3.11402569962910E-05
      1.41076066669874E-15   9.52333333333333E-01   9.52333333333333E-01   0.00000000000000E+00   0.00000000000000E+00
      3.11402569970596E-05   3.64404083293405E-20   3.11402569970596E-05   2.38711879203029E-15   3.00000000000000E+00
      3.00000000000000E+00   0.00000000000000E+00   0.00000000000000E+00   0.00000000000000E+00   0.00000000000000E+00
      0.00000000000000E+00   2.31267694007525E-15
      3.42444444444444E-01
      0.00000000000000E+00   0.00000000000000E+00   0.00000000000000E+00   0.00000000000000E+00   1.59459576636584E-19
     -8.49876291144599E-16  -8.49716831567962E-16  -6.17163845849125E-15   0.00000000000000E+00   0.00000000000000E+00
      0.00000000000000E+00   0.00000000000000E+00  -3.12665620762625E-05  -2.94639249327560E-24  -3.12665620762625E-05
      1.41075873122606E-15   1.02733333333333E+00   1.02733333333333E+00   0.00000000000000E+00   0.00000000000000E+00
      3.12665620771122E-05   3.67669787377307E-20   3.12665620771122E-05   2.45911966094975E-15   3.00000000000000E+00
      3.00000000000000E+00   0.00000000000000E+00   0.00000000000000E+00   0.00000000000000E+00   0.00000000000000E+00
      0.00000000000000E+00   2.30176006631544E-15
      3.67444444444445E-01
      0.00000000000000E+00   0.00000000000000E+00   0.00000000000000E+00   0.00000000000000E+00   1.01200956641718E-18
     -9.49447180819213E-16  -9.48435171252795E-16  -6.23284858569218E-15   0.00000000000000E+00   0.00000000000000E+00
      0.00000000000000E+00   0.00000000000000E+00  -3.13823776706910E-05  -2.96073582200673E-24  -3.13823776706910E-05
      1.41075695452852E-15   1.10233333333333E+00   1.10233333333333E+00   0.00000000000000E+00   0.00000000000000E+00
      3.13823776716394E-05   3.67635558135711E-20   3.13823776716394E-05   2.53081061134546E-15   3.00000000000000E+00
      3.00000000000000E+00   0.00000000000000E+00   0.00000000000000E+00   0.00000000000000E+00   0.00000000000000E+00
      0.00000000000000E+00   2.29128101981821E-15
      3.92444444444445E-01
      0.00000000000000E+00   0.00000000000000E+00   0.00000000000000E+00   0.00000000000000E+00   3.57056508713353E-18
     -1.07388410458953E-15  -1.07031353950239E-15  -6.29426681777567E-15   0.00000000000000E+00   0.00000000000000E+00
      0.00000000000000E+00   0.00000000000000E+00  -3.14883479590884E-05  -2.96688922285944E-24  -3.14883479590884E-05
      1.41075532721595E-15   1.17733333333333E+00   1.17733333333333E+00   0.00000000000000E+00   0.00000000000000E+00
      3.14883479601587E-05   3.67639309031292E-20   3.14883479601587E-05   2.60221981894711E-15   3.00000000000000E+00
      3.00000000000000E+00   0.00000000000000E+00   0.00000000000000E+00   0.00000000000000E+00   0.00000000000000E+00
      0.00000000000000E+00   2.28129167161260E-15
      4.17444444444445E-01
      0.00000000000000E+00   0.00000000000000E+00   0.00000000000000E+00   0.00000000000000E+00  -3.15795504956085E-18
     -1.22298720487362E-15  -1.22614515992318E-15  -6.35588752604983E-15   0.00000000000000E+00   0.00000000000000E+00
      0.00000000000000E+00   0.00000000000000E+00  -3.15855076000983E-05  -2.97606574073477E-24  -3.15855076000983E-05
      1.41075383381459E-15   1.25233333333333E+00   1.25233333333333E+00   0.00000000000000E+00   0.00000000000000E+00
      3.15855076013244E-05   3.67674634879222E-20   3.15855076013244E-05   2.67332908229930E-15   3.00000000000000E+00
      3.00000000000000E+00   0.00000000000000E+00   0.00000000000000E+00   0.00000000000000E+00   0.00000000000000E+00
      0.00000000000000E+00   2.27180460993594E-15
      4.42444444444445E-01
      0.00000000000000E+00   0.00000000000000E+00   0.00000000000000E+00   0.00000000000000E+00  -5.40190651208537E-15
     -1.37637604741518E-15  -6.77828255950054E-15  -6.41755685671295E-15   0.00000000000000E+00   0.00000000000000E+00
      0.00000000000000E+00   0.00000000000000E+00  -3.16752786633062E-05  -2.98366294758099E-24  -3.16752786633062E-05
      1.41075245279782E-15   1.32733333333333E+00   1.32733333333333E+00   0.00000000000000E+00   0.00000000000000E+00
      3.16752786700845E-05   3.67732287335015E-20   3.16752786700845E-05   2.74402502357494E-15   3.00000000000000E+00
      3.00000000000000E+00   0.00000000000000E+00   0.00000000000000E+00   0.00000000000000E+00   0.00000000000000E+00
      0.00000000000000E+00   2.26277938034020E-15
      4.67444444444445E-01
      0.00000000000000E+00   0.00000000000000E+00   0.00000000000000E+00   0.00000000000000E+00   2.38691127065877E-15
     -1.49879699220648E-15   8.88114278452288E-16  -6.47895059411319E-15   0.00000000000000E+00   0.00000000000000E+00
      0.00000000000000E+00   0.00000000000000E+00  -3.17591848333245E-05  -2.98957283202869E-24  -3.17591848333245E-05
      1.41075116097679E-15   1.40233333333333E+00   1.40233333333333E+00   0.00000000000000E+00   0.00000000000000E+00
      3.17591848324364E-05   3.67805959540738E-20   3.17591848324364E-05   2.81406198838685E-15   3.00000000000000E+00
      3.00000000000000E+00   0.00000000000000E+00   0.00000000000000E+00   0.00000000000000E+00   0.00000000000000E+00
      0.00000000000000E+00   2.25413744474956E-15
      4.92444444444445E-01
      0.00000000000000E+00   0.00000000000000E+00   0.00000000000000E+00   0.00000000000000E+00   1.46069304108238E-16
     -1.57702316012706E-15  -1.43095385601882E-15  -6.53957431415550E-15   0.00000000000000E+00   0.00000000000000E+00
      0.00000000000000E+00   0.00000000000000E+00  -3.18388482659630E-05  -2.99999489401925E-24  -3.18388482659630E-05
      1.41074993355597E-15   1.47733333333333E+00   1.47733333333333E+00   0.00000000000000E+00   0.00000000000000E+00
      3.18388482673939E-05   3.67885868130471E-20   3.18388482673940E-05   2.88306349820818E-15   3.00000000000000E+00
      3.00000000000000E+00   0.00000000000000E+00   0.00000000000000E+00   0.00000000000000E+00   0.00000000000000E+00
      0.00000000000000E+00   2.24576088239134E-15
      5.17444444444445E-01
      0.00000000000000E+00   0.00000000000000E+00   0.00000000000000E+00   0.00000000000000E+00   6.49601526258295E-19
     -1.62359956517664E-15  -1.62294996365038E-15  -6.59901934894453E-15   0.00000000000000E+00   0.00000000000000E+00
      0.00000000000000E+00   0.00000000000000E+00  -3.19155922840840E-05  -3.00808908973129E-24  -3.19155922840840E-05
      1.41074875026654E-15   1.55233333333333E+00   1.55233333333333E+00   0.00000000000000E+00   0.00000000000000E+00
      3.19155922857069E-05   3.67967387373955E-20   3.19155922857069E-05   2.95072936769603E-15   3.00000000000000E+00
      3.00000000000000E+00   0.00000000000000E+00   0.00000000000000E+00   0.00000000000000E+00   0.00000000000000E+00
      0.00000000000000E+00   2.23754123098196E-15
      5.42444444444445E-01
      0.00000000000000E+00   0.00000000000000E+00   0.00000000000000E+00   0.00000000000000E+00  -1.99781344410116E-18
     -1.65413065581910E-15  -1.65612846926320E-15  -6.65720311610697E-15   0.00000000000000E+00   0.00000000000000E+00
      0.00000000000000E+00   0.00000000000000E+00  -3.19900688889561E-05  -3.01425746146737E-24  -3.19900688889561E-05
      1.41074760113909E-15   1.62733333333333E+00   1.62733333333333E+00   0.00000000000000E+00   0.00000000000000E+00
      3.19900688906121E-05   3.68047366733666E-20   3.19900688906121E-05   3.01702759852524E-15   3.00000000000000E+00
      3.00000000000000E+00   0.00000000000000E+00   0.00000000000000E+00   0.00000000000000E+00   0.00000000000000E+00
      0.00000000000000E+00   2.22942791644265E-15
      5.67444444444445E-01
      0.00000000000000E+00   0.00000000000000E+00   0.00000000000000E+00   0.00000000000000E+00   1.16667053182021E-18
     -1.67688376040875E-15  -1.67571708987693E-15  -6.71430235152148E-15   0.00000000000000E+00   0.00000000000000E+00
      0.00000000000000E+00   0.00000000000000E+00  -3.20624789706392E-05  -3.02158159846536E-24  -3.20624789706392E-05
      1.41074648314165E-15   1.70233333333333E+00   1.70233333333333E+00   0.00000000000000E+00   0.00000000000000E+00
      3.20624789723149E-05   3.68124445796920E-20   3.20624789723149E-05   3.08214231715464E-15   3.00000000000000E+00
      3.00000000000000E+00   0.00000000000000E+00   0.00000000000000E+00   0.00000000000000E+00   0.00000000000000E+00
      0.00000000000000E+00   2.22141355122518E-15
      5.92444444444445E-01
      0.00000000000000E+00   0.00000000000000E+00   0.00000000000000E+00   0.00000000000000E+00   2.78449283722194E-18
     -1.69389993597798E-15  -1.69111544314076E-15  -6.77057333304245E-15   0.00000000000000E+00   0.00000000000000E+00
      0.00000000000000E+00   0.00000000000000E+00  -3.21328439970558E-05  -3.02727104487466E-24  -3.21328439970558E-05
      1.41074539600518E-15   1.77733333333333E+00   1.77733333333333E+00   0.00000000000000E+00   0.00000000000000E+00
      3.21328439987469E-05   3.68198261909671E-20   3.21328439987469E-05   3.14631926498958E-15   3.00000000000000E+00
      3.00000000000000E+00   0.00000000000000E+00   0.00000000000000E+00   0.00000000000000E+00   0.00000000000000E+00
      0.00000000000000E+00   2.21350867204769E-15
      6.17444444444445E-01
      0.00000000000000E+00   0.00000000000000E+00   0.00000000000000E+00   0.00000000000000E+00   2.69192208922745E-18
     -1.70594831284683E-15  -1.70325639075760E-15  -6.82623089486981E-15   0.00000000000000E+00   0.00000000000000E+00
      0.00000000000000E+00   0.00000000000000E+00  -3.22011549184069E-05  -3.03852068484903E-24  -3.22011549184069E-05
      1.41074433993009E-15   1.85233333333333E+00   1.85233333333333E+00   0.00000000000000E+00   0.00000000000000E+00
      3.22011549201101E-05   3.68268828783441E-20   3.22011549201101E-05   3.20976003161228E-15   3.00000000000000E+00
      3.00000000000000E+00   0.00000000000000E+00   0.00000000000000E+00   0.00000000000000E+00   0.00000000000000E+00
      0.00000000000000E+00   2.20572652332742E-15
      6.42444444444445E-01
      0.00000000000000E+00   0.00000000000000E+00   0.00000000000000E+00   0.00000000000000E+00   1.89197971346052E-18
     -1.71473506285984E-15  -1.71284308314638E-15  -6.88142078781851E-15   0.00000000000000E+00   0.00000000000000E+00
      0.00000000000000E+00   0.00000000000000E+00  -3.22674939845964E-05  -3.04066101397936E-24  -3.22674939845964E-05
      1.41074331370275E-15   1.92733333333333E+00   1.92733333333333E+00   0.00000000000000E+00   0.00000000000000E+00
      3.22674939863092E-05   3.68336274771180E-20   3.22674939863092E-05   3.27260864879365E-15   3.00000000000000E+00
      3.00000000000000E+00   0.00000000000000E+00   0.00000000000000E+00   0.00000000000000E+00   0.00000000000000E+00
      0.00000000000000E+00   2.19806882532210E-15
      6.67444444444445E-01
      0.00000000000000E+00   0.00000000000000E+00   0.00000000000000E+00   0.00000000000000E+00   3.42016404940945E-18
     -1.72231206851129E-15  -1.71889190446188E-15  -6.93624348202680E-15   0.00000000000000E+00   0.00000000000000E+00
      0.00000000000000E+00   0.00000000000000E+00  -3.23321075652883E-05  -3.04952464394733E-24  -3.23321075652883E-05
      1.41074231356386E-15   2.00233333333333E+00   2.00233333333333E+00   0.00000000000000E+00   0.00000000000000E+00
      3.23321075670071E-05   3.68400752375915E-20   3.23321075670072E-05   3.33498517266100E-15   3.00000000000000E+00
      3.00000000000000E+00   0.00000000000000E+00   0.00000000000000E+00   0.00000000000000E+00   0.00000000000000E+00
      0.00000000000000E+00   2.19051599580194E-15
      6.92444444444445E-01
      0.00000000000000E+00   0.00000000000000E+00   0.00000000000000E+00   0.00000000000000E+00  -2.45663179691258E-18
     -1.73057858337332E-15  -1.73303521517023E-15  -6.99077677528885E-15   0.00000000000000E+00   0.00000000000000E+00
      0.00000000000000E+00   0.00000000000000E+00  -3.23953386306886E-05  -3.05345985243409E-24  -3.23953386306886E-05
      1.41074133424669E-15   2.07733333333333E+00   2.07733333333333E+00   0.00000000000000E+00   0.00000000000000E+00
      3.23953386324216E-05   3.68462394188957E-20   3.23953386324216E-05   3.39700128814634E-15   3.00000000000000E+00
      3.00000000000000E+00   0.00000000000000E+00   0.00000000000000E+00   0.00000000000000E+00   0.00000000000000E+00
      0.00000000000000E+00   2.18303415289581E-15
      7.17444444444445E-01
      0.00000000000000E+00   0.00000000000000E+00   0.00000000000000E+00   0.00000000000000E+00  -1.04497496511150E-18
     -1.74079366195347E-15  -1.74183863691859E-15  -7.04507825601239E-15   0.00000000000000E+00   0.00000000000000E+00
      0.00000000000000E+00   0.00000000000000E+00  -3.24574906491575E-05  -3.05834773201885E-24  -3.24574906491575E-05
      1.41074037108406E-15   2.15233333333333E+00   2.15233333333333E+00   0.00000000000000E+00   0.00000000000000E+00
      3.24574906508993E-05   3.68521364722933E-20   3.24574906508993E-05   3.45874633786368E-15   3.00000000000000E+00
      3.00000000000000E+00   0.00000000000000E+00   0.00000000000000E+00   0.00000000000000E+00   0.00000000000000E+00
      0.00000000000000E+00   2.17559154706464E-15
      7.42444444444445E-01
      0.00000000000000E+00   0.00000000000000E+00   0.00000000000000E+00   0.00000000000000E+00  -3.08443901372982E-18
     -1.75307708574587E-15  -1.75616152475960E-15  -7.09918249602101E-15   0.00000000000000E+00   0.00000000000000E+00
      0.00000000000000E+00   0.00000000000000E+00  -3.25187559940955E-05  -3.06154255544581E-24  -3.25187559940955E-05
      1.41073942112038E-15   2.22733333333333E+00   2.22733333333333E+00   0.00000000000000E+00   0.00000000000000E+00
      3.25187559958516E-05   3.68577884644120E-20   3.25187559958517E-05   3.52027494253928E-15   3.00000000000000E+00
      3.00000000000000E+00   0.00000000000000E+00   0.00000000000000E+00   0.00000000000000E+00   0.00000000000000E+00
      0.00000000000000E+00   2.16816813236135E-15
      7.67444444444445E-01
      0.00000000000000E+00   0.00000000000000E+00   0.00000000000000E+00   0.00000000000000E+00   6.83687939232173E-19
     -1.76677423378948E-15  -1.76609054585025E-15  -7.15310579291913E-15   0.00000000000000E+00   0.00000000000000E+00
      0.00000000000000E+00   0.00000000000000E+00  -3.25792389315858E-05  -3.06980884812833E-24  -3.25792389315858E-05
      1.41073848276027E-15   2.30233333333333E+00   2.30233333333333E+00   0.00000000000000E+00   0.00000000000000E+00
      3.25792389333519E-05   3.68632191466197E-20   3.25792389333519E-05   3.58161364474170E-15   3.00000000000000E+00
      3.00000000000000E+00   0.00000000000000E+00   0.00000000000000E+00   0.00000000000000E+00   0.00000000000000E+00
      0.00000000000000E+00   2.16075366541716E-15
      7.92444444444445E-01
      0.00000000000000E+00   0.00000000000000E+00   0.00000000000000E+00   0.00000000000000E+00  -2.24166183696928E-18
     -1.78097325536004E-15  -1.78321491719701E-15  -7.20685298918289E-15   0.00000000000000E+00   0.00000000000000E+00
      0.00000000000000E+00   0.00000000000000E+00  -3.26389957572291E-05  -3.07457134511784E-24  -3.26389957572291E-05
      1.41073755514939E-15   2.37733333333333E+00   2.37733333333333E+00   0.00000000000000E+00   0.00000000000000E+00
      3.26389957590123E-05   3.68684491161409E-20   3.26389957590123E-05   3.64277199232751E-15   3.00000000000000E+00
      3.00000000000000E+00   0.00000000000000E+00   0.00000000000000E+00   0.00000000000000E+00   0.00000000000000E+00
      0.00000000000000E+00   2.15334344170598E-15
      8.17444444444445E-01
      0.00000000000000E+00   0.00000000000000E+00   0.00000000000000E+00   0.00000000000000E+00   1.61107291956541E-18
     -1.79466796215779E-15  -1.79305688923823E-15  -7.26042302118688E-15   0.00000000000000E+00   0.00000000000000E+00
      0.00000000000000E+00   0.00000000000000E+00  -3.26980612271332E-05  -3.08179570741805E-24  -3.26980612271332E-05
      1.41073663776573E-15   2.45233333333333E+00   2.45233333333333E+00   0.00000000000000E+00   0.00000000000000E+00
      3.26980612289262E-05   3.68734390394499E-20   3.26980612289262E-05   3.70375097319739E-15   3.00000000000000E+00
      3.00000000000000E+00   0.00000000000000E+00   0.00000000000000E+00   0.00000000000000E+00   0.00000000000000E+00
      0.00000000000000E+00   2.14593541022376E-15
      8.42444444444445E-01
      0.00000000000000E+00   0.00000000000000E+00   0.00000000000000E+00   0.00000000000000E+00   6.01468334078004E-19
     -1.80829334494211E-15  -1.80769187660804E-15  -7.31381286172113E-15   0.00000000000000E+00   0.00000000000000E+00
      0.00000000000000E+00   0.00000000000000E+00  -3.27564619065681E-05  -3.08826527036062E-24  -3.27564619065681E-05
      1.41073573021369E-15   2.52733333333333E+00   2.52733333333333E+00   0.00000000000000E+00   0.00000000000000E+00
      3.27564619083758E-05   3.68783400187963E-20   3.27564619083758E-05   3.76454845244292E-15   3.00000000000000E+00
      3.00000000000000E+00   0.00000000000000E+00   0.00000000000000E+00   0.00000000000000E+00   0.00000000000000E+00
      0.00000000000000E+00   2.13852867906453E-15
      8.67444444444445E-01
      0.00000000000000E+00   0.00000000000000E+00   0.00000000000000E+00   0.00000000000000E+00  -2.73078195223160E-18