DF-ISE text

Info {
  version   = 1.0
  type      = xyplot
  datasets  = [
    "time"
    "substrate OuterVoltage" "substrate InnerVoltage" "substrate QuasiFermiPotential" "substrate DisplacementCurrent" "substrate eCurrent"
    "substrate hCurrent" "substrate TotalCurrent" "substrate Charge" "source OuterVoltage" "source InnerVoltage"
    "source QuasiFermiPotential" "source DisplacementCurrent" "source eCurrent" "source hCurrent" "source TotalCurrent"
    "source Charge" "drain OuterVoltage" "drain InnerVoltage" "drain QuasiFermiPotential" "drain DisplacementCurrent"
    "drain eCurrent" "drain hCurrent" "drain TotalCurrent" "drain Charge" "gate OuterVoltage"
    "gate InnerVoltage" "gate QuasiFermiPotential" "gate DisplacementCurrent" "gate eCurrent" "gate hCurrent"
    "gate TotalCurrent" "gate Charge" ]
  functions = [
    Time
    OuterVoltage InnerVoltage QuasiFermiPotential DisplacementCurrent eCurrent
    hCurrent TotalCurrent Charge OuterVoltage InnerVoltage
    QuasiFermiPotential DisplacementCurrent eCurrent hCurrent TotalCurrent
    Charge OuterVoltage InnerVoltage QuasiFermiPotential DisplacementCurrent
    eCurrent hCurrent TotalCurrent Charge OuterVoltage
    InnerVoltage QuasiFermiPotential DisplacementCurrent eCurrent hCurrent
    TotalCurrent Charge ]
}

Data {
      0.00000000000000E+00
      0.00000000000000E+00   0.00000000000000E+00   0.00000000000000E+00   0.00000000000000E+00   1.06978036577684E-25
      3.59116765504877E-26   1.42889713128172E-25  -5.98253384612087E-15   0.00000000000000E+00   0.00000000000000E+00
      0.00000000000000E+00   0.00000000000000E+00   1.46106749047560E-26  -1.09311532653525E-26   3.67952163940351E-27
      3.04607018363353E-15   0.00000000000000E+00   0.00000000000000E+00   0.00000000000000E+00   0.00000000000000E+00
     -1.21589171608378E-25  -2.49800631591966E-26  -1.46569234767575E-25   3.04607018363353E-15   0.00000000000000E+00
      0.00000000000000E+00   0.00000000000000E+00   0.00000000000000E+00   0.00000000000000E+00   0.00000000000000E+00
      0.00000000000000E+00  -1.09606521146174E-16
      1.00000000000000E-02
      0.00000000000000E+00   0.00000000000000E+00   0.00000000000000E+00   0.00000000000000E+00   1.85954889800660E-18
     -6.79481609464689E-17  -6.60886120484623E-17  -6.06326438173029E-15   0.00000000000000E+00   0.00000000000000E+00
      0.00000000000000E+00   0.00000000000000E+00  -1.45888231022454E-19  -3.77075542921920E-27  -1.45888234793209E-19
      3.04607018363345E-15   3.00000000000000E-02   3.00000000000000E-02   0.00000000000000E+00   0.00000000000000E+00
      6.62425593851957E-17  -8.05910194020725E-21   6.62345002832555E-17   3.13831020053578E-15   0.00000000000000E+00
      0.00000000000000E+00   0.00000000000000E+00   0.00000000000000E+00   0.00000000000000E+00   0.00000000000000E+00
      0.00000000000000E+00  -1.21116002438931E-16
      2.40000000000000E-02
      0.00000000000000E+00   0.00000000000000E+00   0.00000000000000E+00   0.00000000000000E+00  -5.68039834707602E-20
     -1.30839390728996E-16  -1.30896194712467E-16  -6.17575638853911E-15   0.00000000000000E+00   0.00000000000000E+00
      0.00000000000000E+00   0.00000000000000E+00  -1.94275671512392E-19  -9.26617218804654E-27  -1.94275680778564E-19
      3.04607018363382E-15   7.20000000000000E-02   7.20000000000000E-02   0.00000000000000E+00   0.00000000000000E+00
      1.31142540808002E-16  -5.20704147571397E-20   1.31090470393245E-16   3.26692875158062E-15   0.00000000000000E+00
      0.00000000000000E+00   0.00000000000000E+00   0.00000000000000E+00   0.00000000000000E+00   0.00000000000000E+00
      0.00000000000000E+00  -1.37242546675315E-16
      4.45333333333333E-02
      0.00000000000000E+00   0.00000000000000E+00   0.00000000000000E+00   0.00000000000000E+00  -6.08234792132097E-20
     -1.89517369627488E-16  -1.89578193106701E-16  -6.33960252499442E-15   0.00000000000000E+00   0.00000000000000E+00
      0.00000000000000E+00   0.00000000000000E+00  -1.99770954859930E-19   1.48022359150843E-26  -1.99770940057694E-19
      3.04607018363328E-15   1.33600000000000E-01   1.33600000000000E-01   0.00000000000000E+00   0.00000000000000E+00
      1.89771086358963E-16   6.87768779521886E-21   1.89777964046759E-16   3.45445772199177E-15   0.00000000000000E+00
      0.00000000000000E+00   0.00000000000000E+00   0.00000000000000E+00   0.00000000000000E+00   0.00000000000000E+00
      0.00000000000000E+00  -1.60925380630631E-16
      6.95333333333333E-02
      0.00000000000000E+00   0.00000000000000E+00   0.00000000000000E+00   0.00000000000000E+00  -6.04289606116373E-20
     -2.31859117387346E-16  -2.31919546347958E-16  -6.53716518577327E-15   0.00000000000000E+00   0.00000000000000E+00
      0.00000000000000E+00   0.00000000000000E+00  -1.98171358109640E-19   1.53099707619249E-27  -1.98171356578643E-19
      3.04607018363322E-15   2.08600000000000E-01   2.08600000000000E-01   0.00000000000000E+00   0.00000000000000E+00
      2.32110891295327E-16   6.82640920902606E-21   2.32117717704536E-16   3.68091023778133E-15   0.00000000000000E+00
      0.00000000000000E+00   0.00000000000000E+00   0.00000000000000E+00   0.00000000000000E+00   0.00000000000000E+00
      0.00000000000000E+00  -1.89815235641273E-16
      9.45333333333333E-02
      0.00000000000000E+00   0.00000000000000E+00   0.00000000000000E+00   0.00000000000000E+00  -6.04575610378536E-20
     -2.63393692895751E-16  -2.63454150456789E-16  -6.73247884510416E-15   0.00000000000000E+00   0.00000000000000E+00
      0.00000000000000E+00   0.00000000000000E+00  -1.98254619199436E-19  -2.34859824936254E-26  -1.98254642685418E-19
      3.04607018363317E-15   2.83600000000000E-01   2.83600000000000E-01   0.00000000000000E+00   0.00000000000000E+00
      2.63645582541497E-16   6.82255797752671E-21   2.63652405099474E-16   3.90518355244133E-15   0.00000000000000E+00
      0.00000000000000E+00   0.00000000000000E+00   0.00000000000000E+00   0.00000000000000E+00   0.00000000000000E+00
      0.00000000000000E+00  -2.18774890970341E-16
      1.19533333333333E-01
      0.00000000000000E+00   0.00000000000000E+00   0.00000000000000E+00   0.00000000000000E+00  -6.05990070416927E-20
     -3.03787665474584E-16  -3.03848264481626E-16  -6.92534212898552E-15   0.00000000000000E+00   0.00000000000000E+00
      0.00000000000000E+00   0.00000000000000E+00  -1.98861981548956E-19  -2.43156585573921E-27  -1.98861983980522E-19
      3.04607018363311E-15   3.58600000000000E-01   3.58600000000000E-01   0.00000000000000E+00   0.00000000000000E+00
      3.04040296807064E-16   6.82965854197622E-21   3.04047126465606E-16   4.12708744734465E-15   0.00000000000000E+00
      0.00000000000000E+00   0.00000000000000E+00   0.00000000000000E+00   0.00000000000000E+00   0.00000000000000E+00
      0.00000000000000E+00  -2.47815501992244E-16
      1.44533333333333E-01
      0.00000000000000E+00   0.00000000000000E+00   0.00000000000000E+00   0.00000000000000E+00  -6.07668635612982E-20
     -3.66295403284110E-16  -3.66356170147671E-16  -7.11539398060253E-15   0.00000000000000E+00   0.00000000000000E+00
      0.00000000000000E+00   0.00000000000000E+00  -1.99702508934353E-19   1.14682700200631E-26  -1.99702497466083E-19
      3.04607018363302E-15   4.33600000000000E-01   4.33600000000000E-01   0.00000000000000E+00   0.00000000000000E+00
      3.66549036559464E-16   6.83608567290338E-21   3.66555872645137E-16   4.34627348300575E-15   0.00000000000000E+00
      0.00000000000000E+00   0.00000000000000E+00   0.00000000000000E+00   0.00000000000000E+00   0.00000000000000E+00
      0.00000000000000E+00  -2.76949686036253E-16
      1.69533333333333E-01
      0.00000000000000E+00   0.00000000000000E+00   0.00000000000000E+00   0.00000000000000E+00  -6.09443460351454E-20
     -4.38469111707228E-16  -4.38530056053263E-16  -7.30195443383109E-15   0.00000000000000E+00   0.00000000000000E+00
      0.00000000000000E+00   0.00000000000000E+00  -2.00603053915482E-19  -4.58650496317661E-30  -2.00603053920069E-19
      3.04607018363292E-15   5.08600000000000E-01   5.08600000000000E-01   0.00000000000000E+00   0.00000000000000E+00
      4.38723817816491E-16   6.84129069169589E-21   4.38730659107183E-16   4.56207551151912E-15   0.00000000000000E+00
      0.00000000000000E+00   0.00000000000000E+00   0.00000000000000E+00   0.00000000000000E+00   0.00000000000000E+00
      0.00000000000000E+00  -3.06191261320946E-16
      1.94533333333333E-01
      0.00000000000000E+00   0.00000000000000E+00   0.00000000000000E+00   0.00000000000000E+00  -6.11165925398665E-20
     -4.84719786971985E-16  -4.84780903564524E-16  -7.48382760712810E-15   0.00000000000000E+00   0.00000000000000E+00
      0.00000000000000E+00   0.00000000000000E+00  -2.01498789530691E-19   1.04393963129516E-26  -2.01498779091295E-19
      3.04607018363286E-15   5.83600000000000E-01   5.83600000000000E-01   0.00000000000000E+00   0.00000000000000E+00
      4.84975556693704E-16   6.84564991079543E-21   4.84982402343615E-16   4.77331205848389E-15   0.00000000000000E+00
      0.00000000000000E+00   0.00000000000000E+00   0.00000000000000E+00   0.00000000000000E+00   0.00000000000000E+00
      0.00000000000000E+00  -3.35554634988648E-16
      2.19533333333333E-01
      0.00000000000000E+00   0.00000000000000E+00   0.00000000000000E+00   0.00000000000000E+00  -6.12874405695424E-20
     -5.14015097881159E-16  -5.14076385321729E-16  -7.65896762637154E-15   0.00000000000000E+00   0.00000000000000E+00
      0.00000000000000E+00   0.00000000000000E+00  -2.02383415643863E-19   1.48062104318128E-26  -2.02383400837652E-19
      3.04607018363280E-15   6.58600000000000E-01   6.58600000000000E-01   0.00000000000000E+00   0.00000000000000E+00
      5.14271919329366E-16   6.84939319925127E-21   5.14278768722565E-16   4.97795117945916E-15   0.00000000000000E+00
      0.00000000000000E+00   0.00000000000000E+00   0.00000000000000E+00   0.00000000000000E+00   0.00000000000000E+00
      0.00000000000000E+00  -3.65053736720428E-16
      2.44533333333333E-01
      0.00000000000000E+00   0.00000000000000E+00   0.00000000000000E+00   0.00000000000000E+00  -6.14580106847232E-20
     -5.35743003229698E-16  -5.35804461240382E-16  -7.82394017760986E-15   0.00000000000000E+00   0.00000000000000E+00
      0.00000000000000E+00   0.00000000000000E+00  -2.03245115991051E-19   9.04828107157043E-27  -2.03245106942770E-19
      3.04607018363276E-15   7.33600000000000E-01   7.33600000000000E-01   0.00000000000000E+00   0.00000000000000E+00
      5.36000853678592E-16   6.85266873141374E-21   5.36007706347324E-16   5.17257047096900E-15   0.00000000000000E+00
      0.00000000000000E+00   0.00000000000000E+00   0.00000000000000E+00   0.00000000000000E+00   0.00000000000000E+00
      0.00000000000000E+00  -3.94700476991886E-16
      2.69533333333333E-01
      0.00000000000000E+00   0.00000000000000E+00   0.00000000000000E+00   0.00000000000000E+00  -6.16228738604273E-20
     -5.46859973398606E-16  -5.46921596272467E-16  -7.97434844184424E-15   0.00000000000000E+00   0.00000000000000E+00
      0.00000000000000E+00   0.00000000000000E+00  -2.04084745262076E-19   3.74851249509666E-27  -2.04084741513564E-19
      3.04607018363275E-15   8.08600000000000E-01   8.08600000000000E-01   0.00000000000000E+00   0.00000000000000E+00
      5.47118825417398E-16   6.85559658252363E-21   5.47125681013980E-16   5.35278108906446E-15   0.00000000000000E+00
      0.00000000000000E+00   0.00000000000000E+00   0.00000000000000E+00   0.00000000000000E+00   0.00000000000000E+00
      0.00000000000000E+00  -4.24502830852977E-16
      2.94533333333333E-01
      0.00000000000000E+00   0.00000000000000E+00   0.00000000000000E+00   0.00000000000000E+00  -6.17702172801770E-20
     -5.51358449329859E-16  -5.51420219547139E-16  -8.10927534373225E-15   0.00000000000000E+00   0.00000000000000E+00
      0.00000000000000E+00   0.00000000000000E+00  -2.04905204271010E-19  -1.82825842029977E-27  -2.04905206099269E-19
      3.04607018363270E-15   8.83600000000000E-01   8.83600000000000E-01   0.00000000000000E+00   0.00000000000000E+00
      5.51618266506765E-16   6.85824647338380E-21   5.51625124753239E-16   5.51766781062141E-15   0.00000000000000E+00
      0.00000000000000E+00   0.00000000000000E+00   0.00000000000000E+00   0.00000000000000E+00   0.00000000000000E+00
      0.00000000000000E+00  -4.54462650521870E-16
      3.19533333333333E-01
      0.00000000000000E+00   0.00000000000000E+00   0.00000000000000E+00   0.00000000000000E+00  -6.19038077637358E-20
     -5.54812054445430E-16  -5.54873958253194E-16  -8.23423602003270E-15   0.00000000000000E+00   0.00000000000000E+00
      0.00000000000000E+00   0.00000000000000E+00  -2.05707171582666E-19  -2.12248452430080E-26  -2.05707192807511E-19
      3.04607018363267E-15   9.58600000000000E-01   9.58600000000000E-01   0.00000000000000E+00   0.00000000000000E+00
      5.55072804807375E-16   6.86063862651505E-21   5.55079665446002E-16   5.67273884798365E-15   0.00000000000000E+00
      0.00000000000000E+00   0.00000000000000E+00   0.00000000000000E+00   0.00000000000000E+00   0.00000000000000E+00
      0.00000000000000E+00  -4.84573011583605E-16
      3.44533333333333E-01
      0.00000000000000E+00   0.00000000000000E+00   0.00000000000000E+00   0.00000000000000E+00  -6.20298015372448E-20
     -5.61117682115239E-16  -5.61179711916776E-16  -8.35451650328030E-15   0.00000000000000E+00   0.00000000000000E+00
      0.00000000000000E+00   0.00000000000000E+00  -2.06497505554781E-19   2.79990996519405E-27  -2.06497502754871E-19
      3.04607018363264E-15   1.03360000000000E+00   1.03360000000000E+00   0.00000000000000E+00   0.00000000000000E+00
      5.61379346623438E-16   6.86279609195720E-21   5.61386209419530E-16   5.82326135403354E-15   0.00000000000000E+00
      0.00000000000000E+00   0.00000000000000E+00   0.00000000000000E+00   0.00000000000000E+00   0.00000000000000E+00
      0.00000000000000E+00  -5.14815034385867E-16
      3.69533333333333E-01
      0.00000000000000E+00   0.00000000000000E+00   0.00000000000000E+00   0.00000000000000E+00  -6.21472824109522E-20
     -5.75061392836391E-16  -5.75123540118802E-16  -8.47222410714274E-15   0.00000000000000E+00   0.00000000000000E+00
      0.00000000000000E+00   0.00000000000000E+00  -2.07264471892236E-19   8.05960898771018E-27  -2.07264463832627E-19
      3.04607018363259E-15   1.10860000000000E+00   1.10860000000000E+00   0.00000000000000E+00   0.00000000000000E+00
      5.75323939822429E-16   6.86476020659443E-21   5.75330804582636E-16   5.97131098609522E-15   0.00000000000000E+00
      0.00000000000000E+00   0.00000000000000E+00   0.00000000000000E+00   0.00000000000000E+00   0.00000000000000E+00
      0.00000000000000E+00  -5.45157062585074E-16
      3.94533333333333E-01
      0.00000000000000E+00   0.00000000000000E+00   0.00000000000000E+00   0.00000000000000E+00  -6.22524692069720E-20
     -6.04430697450137E-16  -6.04492949919345E-16  -8.58809898660358E-15   0.00000000000000E+00   0.00000000000000E+00
      0.00000000000000E+00   0.00000000000000E+00  -2.07991120085077E-19   6.85686156371197E-27  -2.07991113228215E-19
      3.04607018363252E-15   1.18360000000000E+00   1.18360000000000E+00   0.00000000000000E+00   0.00000000000000E+00
      6.04694074457655E-16   6.86657491823542E-21   6.04700941032574E-16   6.11759067320192E-15   0.00000000000000E+00
      0.00000000000000E+00   0.00000000000000E+00   0.00000000000000E+00   0.00000000000000E+00   0.00000000000000E+00
      0.00000000000000E+00  -5.75561870230856E-16
      4.19533333333333E-01
      0.00000000000000E+00   0.00000000000000E+00   0.00000000000000E+00   0.00000000000000E+00  -6.23468020205696E-20
     -6.60507332792292E-16  -6.60569679594312E-16  -8.70253763055612E-15   0.00000000000000E+00   0.00000000000000E+00
      0.00000000000000E+00   0.00000000000000E+00  -2.08672419478421E-19   1.87701687895532E-26  -2.08672400708253E-19
      3.04607018363242E-15   1.25860000000000E+00   1.25860000000000E+00   0.00000000000000E+00   0.00000000000000E+00
      6.60771483739027E-16   6.86825599402327E-21   6.60778351995021E-16   6.26246648714807E-15   0.00000000000000E+00
      0.00000000000000E+00   0.00000000000000E+00   0.00000000000000E+00   0.00000000000000E+00   0.00000000000000E+00
      0.00000000000000E+00  -6.05999040224356E-16
      4.44533333333333E-01
      0.00000000000000E+00   0.00000000000000E+00   0.00000000000000E+00   0.00000000000000E+00  -6.24345710584432E-20
     -7.68972855652948E-16  -7.69035290224006E-16  -8.81582751241081E-15   0.00000000000000E+00   0.00000000000000E+00
      0.00000000000000E+00   0.00000000000000E+00  -2.09312785478978E-19   2.07565107804102E-26  -2.09312764722468E-19
      3.04607018363227E-15   1.33360000000000E+00   1.33360000000000E+00   0.00000000000000E+00   0.00000000000000E+00
      7.69237733188710E-16   6.86980001654836E-21   7.69244602988727E-16   6.40620790436827E-15   0.00000000000000E+00
      0.00000000000000E+00   0.00000000000000E+00   0.00000000000000E+00   0.00000000000000E+00   0.00000000000000E+00
      0.00000000000000E+00  -6.36450575589728E-16
      4.69533333333333E-01
      0.00000000000000E+00   0.00000000000000E+00   0.00000000000000E+00   0.00000000000000E+00  -6.25167585114924E-20
     -1.00913914762346E-15  -1.00920166438198E-15  -8.92819745305380E-15   0.00000000000000E+00   0.00000000000000E+00
      0.00000000000000E+00   0.00000000000000E+00  -2.09925598315963E-19   2.39239653221640E-26  -2.09925574391998E-19
      3.04607018363198E-15   1.40860000000000E+00   1.40860000000000E+00   0.00000000000000E+00   0.00000000000000E+00
      1.00940471874081E-15   6.87121555857593E-21   1.00941158995637E-15   6.54903526497359E-15   0.00000000000000E+00
      0.00000000000000E+00   0.00000000000000E+00   0.00000000000000E+00   0.00000000000000E+00   0.00000000000000E+00
      0.00000000000000E+00  -6.66907995551775E-16
      4.94533333333333E-01
      0.00000000000000E+00   0.00000000000000E+00   0.00000000000000E+00   0.00000000000000E+00  -6.25965946584283E-20
     -1.39578456789862E-15  -1.39584716449328E-15  -9.03981012302975E-15   0.00000000000000E+00   0.00000000000000E+00
      0.00000000000000E+00   0.00000000000000E+00  -2.10521872983414E-19  -1.87910076851548E-26  -2.10521891774421E-19
      3.04607018363154E-15   1.48360000000000E+00   1.48360000000000E+00   0.00000000000000E+00   0.00000000000000E+00
      1.39605081386348E-15   6.87252156769789E-21   1.39605768638505E-15   6.69110777241280E-15   0.00000000000000E+00
      0.00000000000000E+00   0.00000000000000E+00   0.00000000000000E+00   0.00000000000000E+00   0.00000000000000E+00
      0.00000000000000E+00  -6.97367833014576E-16
      5.19533333333334E-01
      0.00000000000000E+00   0.00000000000000E+00   0.00000000000000E+00   0.00000000000000E+00  -6.26823642356025E-20
     -1.69165582346960E-15  -1.69171850583384E-15  -9.15076156229530E-15   0.00000000000000E+00   0.00000000000000E+00
      0.00000000000000E+00   0.00000000000000E+00  -2.11097336989604E-19  -2.44739840920376E-27  -2.11097339437003E-19
      3.04607018363119E-15   1.55860000000000E+00   1.55860000000000E+00   0.00000000000000E+00   0.00000000000000E+00
      1.69192272943597E-15   6.87373730938944E-21   1.69192960317328E-15   6.83252011701575E-15   0.00000000000000E+00
      0.00000000000000E+00   0.00000000000000E+00   0.00000000000000E+00   0.00000000000000E+00   0.00000000000000E+00
      0.00000000000000E+00  -7.27828738351637E-16
      5.44533333333334E-01
      0.00000000000000E+00   0.00000000000000E+00   0.00000000000000E+00   0.00000000000000E+00  -6.27647754358098E-20
     -1.84564939474286E-15  -1.84571215951830E-15  -9.26111740723922E-15   0.00000000000000E+00   0.00000000000000E+00
      0.00000000000000E+00   0.00000000000000E+00  -2.11655291271039E-19  -2.39970571246820E-26  -2.11655315268096E-19
      3.04607018363097E-15   1.63360000000000E+00   1.63360000000000E+00   0.00000000000000E+00   0.00000000000000E+00
      1.84591693995519E-15   6.87487837841527E-21   1.84592381483357E-15   6.97333722840140E-15   0.00000000000000E+00
      0.00000000000000E+00   0.00000000000000E+00   0.00000000000000E+00   0.00000000000000E+00   0.00000000000000E+00
      0.00000000000000E+00  -7.58290004793155E-16
      5.69533333333334E-01
      0.00000000000000E+00   0.00000000000000E+00   0.00000000000000E+00   0.00000000000000E+00  -6.28501848746254E-20
     -1.94080671665954E-15  -1.94086956684442E-15  -9.37094862727772E-15   0.00000000000000E+00   0.00000000000000E+00
      0.00000000000000E+00   0.00000000000000E+00  -2.12188293378798E-19  -2.15079275760890E-26  -2.12188314886725E-19
      3.04607018363080E-15   1.70860000000000E+00   1.70860000000000E+00   0.00000000000000E+00   0.00000000000000E+00
      1.94107487920283E-15   6.87595647499939E-21   1.94108175515930E-15   7.11362940080165E-15   0.00000000000000E+00
      0.00000000000000E+00   0.00000000000000E+00   0.00000000000000E+00   0.00000000000000E+00   0.00000000000000E+00
      0.00000000000000E+00  -7.88750957154739E-16
      5.94533333333334E-01
      0.00000000000000E+00   0.00000000000000E+00   0.00000000000000E+00   0.00000000000000E+00  -6.29340468149921E-20
     -2.00781178260640E-15  -2.00787471665322E-15  -9.48033357055732E-15   0.00000000000000E+00   0.00000000000000E+00
      0.00000000000000E+00   0.00000000000000E+00  -2.12709124254429E-19   5.30072448003354E-27  -2.12709118953705E-19
      3.04607018363067E-15   1.78360000000000E+00   1.78360000000000E+00   0.00000000000000E+00   0.00000000000000E+00
      2.00808054879199E-15   6.87698017839115E-21   2.00808742577217E-15   7.25347426803121E-15   0.00000000000000E+00
      0.00000000000000E+00   0.00000000000000E+00   0.00000000000000E+00   0.00000000000000E+00   0.00000000000000E+00
      0.00000000000000E+00  -8.19210881104563E-16
      6.19533333333334E-01
      0.00000000000000E+00   0.00000000000000E+00   0.00000000000000E+00   0.00000000000000E+00  -6.30176109239405E-20
     -2.05710564418909E-15  -2.05716866180002E-15  -9.58933548308513E-15   0.00000000000000E+00   0.00000000000000E+00
      0.00000000000000E+00   0.00000000000000E+00  -2.13220981121731E-19  -1.82756209684204E-26  -2.13220999397352E-19
      3.04607018363056E-15   1.85860000000000E+00   1.85860000000000E+00   0.00000000000000E+00   0.00000000000000E+00
      2.05737500484385E-15   6.87795556316681E-21   2.05738188279941E-15   7.39293447707807E-15   0.00000000000000E+00
      0.00000000000000E+00   0.00000000000000E+00   0.00000000000000E+00   0.00000000000000E+00   0.00000000000000E+00
      0.00000000000000E+00  -8.49669177623483E-16
      6.44533333333334E-01
      0.00000000000000E+00   0.00000000000000E+00   0.00000000000000E+00   0.00000000000000E+00  -6.31033486103513E-20
     -2.09511946684662E-15  -2.09518257019523E-15  -9.69798403943085E-15   0.00000000000000E+00   0.00000000000000E+00
      0.00000000000000E+00   0.00000000000000E+00  -2.13720316575615E-19   7.03532695660636E-27  -2.13720309540288E-19
      3.04607018362952E-15   1.93360000000000E+00   1.93360000000000E+00   0.00000000000000E+00   0.00000000000000E+00
      2.09538941164087E-15   6.87886389634792E-21   2.09539629050477E-15   7.53203933006060E-15   0.00000000000000E+00
      0.00000000000000E+00   0.00000000000000E+00   0.00000000000000E+00   0.00000000000000E+00   0.00000000000000E+00
      0.00000000000000E+00  -8.80125474259281E-16
      6.69533333333334E-01
      0.00000000000000E+00   0.00000000000000E+00   0.00000000000000E+00   0.00000000000000E+00  -6.31888260751290E-20
     -2.12524908670349E-15  -2.12531227552957E-15  -9.80627116209137E-15   0.00000000000000E+00   0.00000000000000E+00
      0.00000000000000E+00   0.00000000000000E+00  -2.14210472036384E-19  -1.27836717182311E-26  -2.14210484820056E-19
      3.04607018362794E-15   2.00860000000000E+00   2.00860000000000E+00   0.00000000000000E+00   0.00000000000000E+00
      2.12551960747971E-15   6.87853467763785E-21   2.12552648601439E-15   7.67078060388813E-15   0.00000000000000E+00
      0.00000000000000E+00   0.00000000000000E+00   0.00000000000000E+00   0.00000000000000E+00   0.00000000000000E+00
      0.00000000000000E+00  -9.10579625424689E-16
      6.94533333333334E-01
      0.00000000000000E+00   0.00000000000000E+00   0.00000000000000E+00   0.00000000000000E+00  -6.32764274383507E-20
     -2.14831485509259E-15  -2.14837813152003E-15  -9.91415413099686E-15   0.00000000000000E+00   0.00000000000000E+00
      0.00000000000000E+00   0.00000000000000E+00  -2.14694556099971E-19  -1.62114963391467E-26  -2.14694572311468E-19
      3.04607018362161E-15   2.08360000000000E+00   2.08360000000000E+00   0.00000000000000E+00   0.00000000000000E+00
      2.14858596676099E-15   6.85933135070833E-21   2.14859282609234E-15   7.80911560160164E-15   0.00000000000000E+00
      0.00000000000000E+00   0.00000000000000E+00   0.00000000000000E+00   0.00000000000000E+00   0.00000000000000E+00
      0.00000000000000E+00  -9.41031654226409E-16
      7.19533333333334E-01
      0.00000000000000E+00   0.00000000000000E+00   0.00000000000000E+00   0.00000000000000E+00  -6.33635046119769E-20
     -2.16550292966689E-15  -2.16556629317150E-15  -1.00215592873208E-14   0.00000000000000E+00   0.00000000000000E+00
      0.00000000000000E+00   0.00000000000000E+00  -2.15183288021373E-19   2.10777744668175E-26  -2.15183266943599E-19
      3.04607018363025E-15   2.15860000000000E+00   2.15860000000000E+00   0.00000000000000E+00   0.00000000000000E+00
      2.16577459520129E-15   6.88123715094398E-21   2.16578147643844E-15   7.94697078178338E-15   0.00000000000000E+00
      0.00000000000000E+00   0.00000000000000E+00   0.00000000000000E+00   0.00000000000000E+00   0.00000000000000E+00
      0.00000000000000E+00  -9.71481678092795E-16
      7.44533333333334E-01
      0.00000000000000E+00   0.00000000000000E+00   0.00000000000000E+00   0.00000000000000E+00  -6.34533112577606E-20
     -2.18302928087170E-15  -2.18309273418296E-15  -1.01283860426190E-14   0.00000000000000E+00   0.00000000000000E+00
      0.00000000000000E+00   0.00000000000000E+00  -2.15678005348629E-19   7.94243430140399E-27  -2.15677997406194E-19
      3.04607018363018E-15   2.23360000000000E+00   2.23360000000000E+00   0.00000000000000E+00   0.00000000000000E+00
      2.18330153042212E-15   6.88175825211142E-21   2.18330841218037E-15   8.08424568547711E-15   0.00000000000000E+00
      0.00000000000000E+00   0.00000000000000E+00   0.00000000000000E+00   0.00000000000000E+00   0.00000000000000E+00
      0.00000000000000E+00  -1.00192982648830E-15
      7.69533333333334E-01
      0.00000000000000E+00   0.00000000000000E+00   0.00000000000000E+00   0.00000000000000E+00  -6.35445997109663E-20
     -2.20584767878527E-15  -2.20591122338498E-15  -1.02345175733683E-14   0.00000000000000E+00   0.00000000000000E+00
      0.00000000000000E+00   0.00000000000000E+00  -2.16179322804549E-19   1.61754990206415E-27  -2.16179321187000E-19
      3.04607018363011E-15   2.30860000000000E+00   2.30860000000000E+00   0.00000000000000E+00   0.00000000000000E+00
      2.20612052049994E-15   6.88220623142231E-21   2.20612740270617E-15   8.22082354735013E-15   0.00000000000000E+00
      0.00000000000000E+00   0.00000000000000E+00   0.00000000000000E+00   0.00000000000000E+00   0.00000000000000E+00
      0.00000000000000E+00  -1.03237615761193E-15
      7.94533333333334E-01
      0.00000000000000E+00   0.00000000000000E+00   0.00000000000000E+00   0.00000000000000E+00  -6.36368410989121E-20
     -2.23144434303609E-15  -2.23150797987719E-15  -1.03398517267151E-14   0.00000000000000E+00   0.00000000000000E+00
      0.00000000000000E+00   0.00000000000000E+00  -2.16684735962853E-19   3.44369802711874E-27  -2.16684732519155E-19
      3.04607018363003E-15   2.38360000000000E+00   2.38360000000000E+00   0.00000000000000E+00   0.00000000000000E+00
      2.23171778197145E-15   6.88263825050484E-21   2.23172466460970E-15   8.35660215107913E-15   0.00000000000000E+00
      0.00000000000000E+00   0.00000000000000E+00   0.00000000000000E+00   0.00000000000000E+00   0.00000000000000E+00
      0.00000000000000E+00  -1.06282060799407E-15
      8.19533333333334E-01
      0.00000000000000E+00   0.00000000000000E+00   0.00000000000000E+00   0.00000000000000E+00  -6.37266452861538E-20
     -2.25402985372147E-15  -2.25409358036676E-15  -1.04443556414683E-14   0.00000000000000E+00   0.00000000000000E+00
      0.00000000000000E+00   0.00000000000000E+00  -2.17193814551653E-19   2.58494169322394E-27  -2.17193811966712E-19
      3.04607018362995E-15   2.45860000000000E+00   2.45860000000000E+00   0.00000000000000E+00   0.00000000000000E+00
      2.25430389110597E-15   6.88307275775954E-21   2.25431077417872E-15   8.49154847126878E-15   0.00000000000000E+00
      0.00000000000000E+00   0.00000000000000E+00   0.00000000000000E+00   0.00000000000000E+00   0.00000000000000E+00
      0.00000000000000E+00  -1.09326301343041E-15
      8.44533333333334E-01
      0.00000000000000E+00   0.00000000000000E+00   0.00000000000000E+00   0.00000000000000E+00  -6.38160103009161E-20
     -2.27297406153669E-15  -2.27303787754699E-15  -1.05480937407800E-14   0.00000000000000E+00   0.00000000000000E+00
      0.00000000000000E+00   0.00000000000000E+00  -2.17699483603896E-19  -5.32337682617356E-27  -2.17699488927273E-19
      3.04607018362988E-15   2.53360000000000E+00   2.53360000000000E+00   0.00000000000000E+00   0.00000000000000E+00
      2.27324869352242E-15   6.88351350279907E-21   2.27325557703592E-15   8.62572674421418E-15   0.00000000000000E+00
      0.00000000000000E+00   0.00000000000000E+00   0.00000000000000E+00   0.00000000000000E+00   0.00000000000000E+00
      0.00000000000000E+00  -1.12370318706406E-15
      8.69533333333334E-01
      0.00000000000000E+00   0.00000000000000E+00   0.00000000000000E+00   0.00000000000000E+00  -6.39030672347460E-20