DF-ISE text

Info {
  version   = 1.0
  type      = xyplot
  datasets  = [
    "time"
    "substrate OuterVoltage" "substrate InnerVoltage" "substrate QuasiFermiPotential" "substrate DisplacementCurrent" "substrate eCurrent"
    "substrate hCurrent" "substrate TotalCurrent" "substrate Charge" "source OuterVoltage" "source InnerVoltage"
    "source QuasiFermiPotential" "source DisplacementCurrent" "source eCurrent" "source hCurrent" "source TotalCurrent"
    "source Charge" "drain OuterVoltage" "drain InnerVoltage" "drain QuasiFermiPotential" "drain DisplacementCurrent"
    "drain eCurrent" "drain hCurrent" "drain TotalCurrent" "drain Charge" "gate OuterVoltage"
    "gate InnerVoltage" "gate QuasiFermiPotential" "gate DisplacementCurrent" "gate eCurrent" "gate hCurrent"
    "gate TotalCurrent" "gate Charge" ]
  functions = [
    Time
    OuterVoltage InnerVoltage QuasiFermiPotential DisplacementCurrent eCurrent
    hCurrent TotalCurrent Charge OuterVoltage InnerVoltage
    QuasiFermiPotential DisplacementCurrent eCurrent hCurrent TotalCurrent
    Charge OuterVoltage InnerVoltage QuasiFermiPotential DisplacementCurrent
    eCurrent hCurrent TotalCurrent Charge OuterVoltage
    InnerVoltage QuasiFermiPotential DisplacementCurrent eCurrent hCurrent
    TotalCurrent Charge ]
}

Data {
      0.00000000000000E+00
      0.00000000000000E+00   0.00000000000000E+00   0.00000000000000E+00   0.00000000000000E+00  -1.43850749184289E-34
     -5.78198853305348E-17  -5.78198853305348E-17   3.32634294694053E-17   0.00000000000000E+00   0.00000000000000E+00
      0.00000000000000E+00   0.00000000000000E+00  -4.97412324854687E-35  -6.12180419033770E-18  -6.12180419033770E-18
     -1.98884960624211E-15   0.00000000000000E+00   0.00000000000000E+00   0.00000000000000E+00   0.00000000000000E+00
      9.89697853803901E-35   6.39416895208725E-17   6.39416895208725E-17  -1.70634268892733E-15   3.00000000000000E+00
      3.00000000000000E+00   0.00000000000000E+00   0.00000000000000E+00   0.00000000000000E+00   0.00000000000000E+00
      0.00000000000000E+00   3.66192886570004E-15
      1.00000000000000E-02
      0.00000000000000E+00   0.00000000000000E+00   0.00000000000000E+00   0.00000000000000E+00  -2.51329880653277E-20
     -3.80523291442685E-05  -3.80523291442685E-05   3.32726350747796E-17   0.00000000000000E+00   0.00000000000000E+00
      0.00000000000000E+00   0.00000000000000E+00  -4.20561651912157E-21  -4.44828954737383E-04  -4.44828954737383E-04
     -1.98147328447402E-15   3.00000000000000E-02   3.00000000000000E-02   0.00000000000000E+00   0.00000000000000E+00
      4.66063626217041E-21   4.82881283881652E-04   4.82881283881652E-04  -1.69880538314891E-15   3.00000000000000E+00
      3.00000000000000E+00   0.00000000000000E+00   0.00000000000000E+00   0.00000000000000E+00   0.00000000000000E+00
      0.00000000000000E+00   3.64700603254815E-15
      2.36666666666667E-02
      0.00000000000000E+00   0.00000000000000E+00   0.00000000000000E+00   0.00000000000000E+00  -8.15041176689714E-20
     -8.99792808657635E-05  -8.99792808657636E-05   3.32852714814861E-17   0.00000000000000E+00   0.00000000000000E+00
      0.00000000000000E+00   0.00000000000000E+00  -1.00648558878592E-20  -1.05260070272182E-03  -1.05260070272182E-03
     -1.97139729199981E-15   7.10000000000000E-02   7.10000000000000E-02   0.00000000000000E+00   0.00000000000000E+00
      1.11535579301007E-20   1.14257998358758E-03   1.14257998358758E-03  -1.68850902325009E-15   3.00000000000000E+00
      3.00000000000000E+00   0.00000000000000E+00   0.00000000000000E+00   0.00000000000000E+00   0.00000000000000E+00
      0.00000000000000E+00   3.62662104376841E-15
      4.37111111111111E-02
      0.00000000000000E+00   0.00000000000000E+00   0.00000000000000E+00   0.00000000000000E+00  -2.29136150206123E-19
     -1.65946873055642E-04  -1.65946873055642E-04   3.33039343240969E-17   0.00000000000000E+00   0.00000000000000E+00
      0.00000000000000E+00   0.00000000000000E+00  -1.88764664735552E-20  -1.94359882485034E-03  -1.94359882485034E-03
     -1.95662942810773E-15   1.31133333333333E-01   1.31133333333333E-01   0.00000000000000E+00   0.00000000000000E+00
      2.16632489252827E-20   2.10954569790598E-03   2.10954569790598E-03  -1.67341729734319E-15   3.00000000000000E+00
      3.00000000000000E+00   0.00000000000000E+00   0.00000000000000E+00   0.00000000000000E+00   0.00000000000000E+00
      0.00000000000000E+00   3.59674279112682E-15
      6.87111111111111E-02
      0.00000000000000E+00   0.00000000000000E+00   0.00000000000000E+00   0.00000000000000E+00  -5.12211861483648E-19
     -2.60340338726322E-04  -2.60340338726323E-04   3.33274433511721E-17   0.00000000000000E+00   0.00000000000000E+00
      0.00000000000000E+00   0.00000000000000E+00  -3.01765875903882E-20  -3.05412894519920E-03  -3.05412894519920E-03
     -1.93822739152240E-15   2.06133333333333E-01   2.06133333333333E-01   0.00000000000000E+00   0.00000000000000E+00
      3.86526666413240E-20   3.31446928392552E-03   3.31446928392552E-03  -1.65461035600797E-15   3.00000000000000E+00
      3.00000000000000E+00   0.00000000000000E+00   0.00000000000000E+00   0.00000000000000E+00   0.00000000000000E+00
      0.00000000000000E+00   3.55951030417920E-15
      9.37111111111111E-02
      0.00000000000000E+00   0.00000000000000E+00   0.00000000000000E+00   0.00000000000000E+00  -8.13554379331337E-19
     -3.54308481516579E-04  -3.54308481516580E-04   3.33512241405567E-17   0.00000000000000E+00   0.00000000000000E+00
      0.00000000000000E+00   0.00000000000000E+00  -4.16884396702707E-20  -4.16375566312059E-03  -4.16375566312059E-03
     -1.91984378038886E-15   2.81133333333333E-01   2.81133333333333E-01   0.00000000000000E+00   0.00000000000000E+00
      6.17540629434995E-20   4.51806414463717E-03   4.51806414463717E-03  -1.63582087709737E-15   3.00000000000000E+00
      3.00000000000000E+00   0.00000000000000E+00   0.00000000000000E+00   0.00000000000000E+00   0.00000000000000E+00
      0.00000000000000E+00   3.52231343334568E-15
      1.18711111111111E-01
      0.00000000000000E+00   0.00000000000000E+00   0.00000000000000E+00   0.00000000000000E+00  -1.07809234518063E-18
     -4.47828062986414E-04  -4.47828062986415E-04   3.33752871041782E-17   0.00000000000000E+00   0.00000000000000E+00
      0.00000000000000E+00   0.00000000000000E+00  -5.32839172772568E-20  -5.27242041743523E-03  -5.27242041743523E-03
     -1.90147826569649E-15   3.56133333333333E-01   3.56133333333333E-01   0.00000000000000E+00   0.00000000000000E+00
      9.13925976315386E-20   5.72024848042164E-03   5.72024848042164E-03  -1.61704863965328E-15   3.00000000000000E+00
      3.00000000000000E+00   0.00000000000000E+00   0.00000000000000E+00   0.00000000000000E+00   0.00000000000000E+00
      0.00000000000000E+00   3.48515161824560E-15
      1.43711111111111E-01
      0.00000000000000E+00   0.00000000000000E+00   0.00000000000000E+00   0.00000000000000E+00  -1.31514209446586E-18
     -5.40881744193170E-04  -5.40881744193171E-04   3.33996398706104E-17   0.00000000000000E+00   0.00000000000000E+00
      0.00000000000000E+00   0.00000000000000E+00  -6.49029713455222E-20  -6.38007656826571E-03  -6.38007656826571E-03
     -1.88313049089438E-15   4.31133333333333E-01   4.31133333333333E-01   0.00000000000000E+00   0.00000000000000E+00
      1.28180445586290E-19   6.92095831245888E-03   6.92095831245888E-03  -1.59829338458521E-15   3.00000000000000E+00
      3.00000000000000E+00   0.00000000000000E+00   0.00000000000000E+00   0.00000000000000E+00   0.00000000000000E+00
      0.00000000000000E+00   3.44802423560897E-15
      1.68711111111111E-01
      0.00000000000000E+00   0.00000000000000E+00   0.00000000000000E+00   0.00000000000000E+00  -1.53960813920360E-18
     -6.33456068038924E-04  -6.33456068038925E-04   3.34242882078554E-17   0.00000000000000E+00   0.00000000000000E+00
      0.00000000000000E+00   0.00000000000000E+00  -7.65196036685285E-20  -7.48668538410002E-03  -7.48668538410002E-03
     -1.86480006715295E-15   5.06133333333333E-01   5.06133333333333E-01   0.00000000000000E+00   0.00000000000000E+00
      1.72864869008500E-19   8.12014145213894E-03   8.12014145213894E-03  -1.57955481735470E-15   3.00000000000000E+00
      3.00000000000000E+00   0.00000000000000E+00   0.00000000000000E+00   0.00000000000000E+00   0.00000000000000E+00
      0.00000000000000E+00   3.41093059629980E-15
      1.93711111111111E-01
      0.00000000000000E+00   0.00000000000000E+00   0.00000000000000E+00   0.00000000000000E+00  -1.75817604025144E-18
     -7.25540378198500E-04  -7.25540378198501E-04   3.34492365837399E-17   0.00000000000000E+00   0.00000000000000E+00
      0.00000000000000E+00   0.00000000000000E+00  -8.81199509396022E-20  -8.59221386495558E-03  -8.59221386495558E-03
     -1.84648657376629E-15   5.81133333333333E-01   5.81133333333333E-01   0.00000000000000E+00   0.00000000000000E+00
      2.25880615354183E-19   9.31775424315408E-03   9.31775424315408E-03  -1.56083260856746E-15   3.00000000000000E+00
      3.00000000000000E+00   0.00000000000000E+00   0.00000000000000E+00   0.00000000000000E+00   0.00000000000000E+00
      0.00000000000000E+00   3.37386994575001E-15
      2.18711111111111E-01
      0.00000000000000E+00   0.00000000000000E+00   0.00000000000000E+00   0.00000000000000E+00  -1.97305207272552E-18
     -8.17126159430494E-04  -8.17126159430496E-04   3.34744884788919E-17   0.00000000000000E+00   0.00000000000000E+00
      0.00000000000000E+00   0.00000000000000E+00  -9.96966957320222E-20  -9.69663343247887E-03  -9.69663343247887E-03
     -1.82818955825235E-15   6.56133333333333E-01   6.56133333333333E-01   0.00000000000000E+00   0.00000000000000E+00
      2.87297972622003E-19   1.05137595919094E-02   1.05137595919094E-02  -1.54212639576648E-15   3.00000000000000E+00
      3.00000000000000E+00   0.00000000000000E+00   0.00000000000000E+00   0.00000000000000E+00   0.00000000000000E+00
      0.00000000000000E+00   3.33684146553994E-15
      2.43711111111111E-01
      0.00000000000000E+00   0.00000000000000E+00   0.00000000000000E+00   0.00000000000000E+00  -2.18488759310598E-18
     -9.08206596203726E-04  -9.08206596203728E-04   3.35000465874128E-17   0.00000000000000E+00   0.00000000000000E+00
      0.00000000000000E+00   0.00000000000000E+00  -1.11246841232835E-19  -1.07999190736371E-02  -1.07999190736371E-02
     -1.80990853791426E-15   7.31133333333333E-01   7.31133333333333E-01   0.00000000000000E+00   0.00000000000000E+00
      3.56915155720228E-19   1.17081256698408E-02   1.17081256698408E-02  -1.52343578576212E-15   3.00000000000000E+00
      3.00000000000000E+00   0.00000000000000E+00   0.00000000000000E+00   0.00000000000000E+00   0.00000000000000E+00
      0.00000000000000E+00   3.29984427708898E-15
      2.68711111111111E-01
      0.00000000000000E+00   0.00000000000000E+00   0.00000000000000E+00   0.00000000000000E+00  -2.39387954542888E-18
     -9.98776256735305E-04  -9.98776256735307E-04   3.35259129690126E-17   0.00000000000000E+00   0.00000000000000E+00
      0.00000000000000E+00   0.00000000000000E+00  -1.22770020479907E-19  -1.19020487198652E-02  -1.19020487198652E-02
     -1.79164300279225E-15   8.06133333333333E-01   8.06133333333333E-01   0.00000000000000E+00   0.00000000000000E+00
      4.34351507377189E-19   1.29008249766005E-02   1.29008249766005E-02  -1.50476035748150E-15   3.00000000000000E+00
      3.00000000000000E+00   0.00000000000000E+00   0.00000000000000E+00   0.00000000000000E+00   0.00000000000000E+00
      0.00000000000000E+00   3.26287744730474E-15
      2.93711111111111E-01
      0.00000000000000E+00   0.00000000000000E+00   0.00000000000000E+00   0.00000000000000E+00  -2.60010345523510E-18
     -1.08883085470460E-03  -1.08883085470460E-03   3.35520891673201E-17   0.00000000000000E+00   0.00000000000000E+00
      0.00000000000000E+00   0.00000000000000E+00  -1.34267246363487E-19  -1.30030027397325E-02  -1.30030027397325E-02
     -1.77339241929744E-15   8.81133333333333E-01   8.81133333333333E-01   0.00000000000000E+00   0.00000000000000E+00
      5.19116526423590E-19   1.40918335944371E-02   1.40918335944371E-02  -1.48609966609857E-15   3.00000000000000E+00
      3.00000000000000E+00   0.00000000000000E+00   0.00000000000000E+00   0.00000000000000E+00   0.00000000000000E+00
      0.00000000000000E+00   3.22593999622868E-15
      3.18711111111111E-01
      0.00000000000000E+00   0.00000000000000E+00   0.00000000000000E+00   0.00000000000000E+00  -2.80360443269764E-18
     -1.17836706256302E-03  -1.17836706256302E-03   3.35785763059566E-17   0.00000000000000E+00   0.00000000000000E+00
      0.00000000000000E+00   0.00000000000000E+00  -1.45740116980157E-19  -1.41027635340138E-02  -1.41027635340138E-02
     -1.75515623447496E-15   9.56133333333333E-01   9.56133333333333E-01   0.00000000000000E+00   0.00000000000000E+00
      6.10658877735046E-19   1.52811305965769E-02   1.52811305965769E-02  -1.46745324735784E-15   3.00000000000000E+00
      3.00000000000000E+00   0.00000000000000E+00   0.00000000000000E+00   0.00000000000000E+00   0.00000000000000E+00
      0.00000000000000E+00   3.18903090552685E-15
      3.43711111111111E-01
      0.00000000000000E+00   0.00000000000000E+00   0.00000000000000E+00   0.00000000000000E+00  -3.00442072628832E-18
     -1.26738236134441E-03  -1.26738236134441E-03   3.36053751046373E-17   0.00000000000000E+00   0.00000000000000E+00
      0.00000000000000E+00   0.00000000000000E+00  -1.57190372786385E-19  -1.52013152873197E-02  -1.52013152873197E-02
     -1.73693387995943E-15   1.03113333333333E+00   1.03113333333333E+00   0.00000000000000E+00   0.00000000000000E+00
      7.08401250378762E-19   1.64686976486641E-02   1.64686976486641E-02  -1.44882062222682E-15   3.00000000000000E+00
      3.00000000000000E+00   0.00000000000000E+00   0.00000000000000E+00   0.00000000000000E+00   0.00000000000000E+00
      0.00000000000000E+00   3.15214912708162E-15
      3.68711111111111E-01
      0.00000000000000E+00   0.00000000000000E+00   0.00000000000000E+00   0.00000000000000E+00  -3.20258956682831E-18
     -1.35587491641660E-03  -1.35587491641660E-03   3.36324859989593E-17   0.00000000000000E+00   0.00000000000000E+00
      0.00000000000000E+00   0.00000000000000E+00  -1.68619676840239E-19  -1.62986436462040E-02  -1.62986436462040E-02
     -1.71872477803607E-15   1.10613333333333E+00   1.10613333333333E+00   0.00000000000000E+00   0.00000000000000E+00
      8.11764901394941E-19   1.76545185626206E-02   1.76545185626206E-02  -1.43020130062010E-15   3.00000000000000E+00
      3.00000000000000E+00   0.00000000000000E+00   0.00000000000000E+00   0.00000000000000E+00   0.00000000000000E+00
      0.00000000000000E+00   3.11529359265720E-15
      3.93711111111111E-01
      0.00000000000000E+00   0.00000000000000E+00   0.00000000000000E+00   0.00000000000000E+00  -3.39814847731049E-18
     -1.44384347422657E-03  -1.44384347422658E-03   3.36599091538728E-17   0.00000000000000E+00   0.00000000000000E+00
      0.00000000000000E+00   0.00000000000000E+00  -1.80029523423225E-19  -1.73947355350205E-02  -1.73947355350205E-02
     -1.70052834506898E-15   1.18113333333333E+00   1.18113333333333E+00   0.00000000000000E+00   0.00000000000000E+00
      9.20186431591312E-19   1.88385790092471E-02   1.88385790092471E-02  -1.41159478663329E-15   3.00000000000000E+00
      3.00000000000000E+00   0.00000000000000E+00   0.00000000000000E+00   0.00000000000000E+00   0.00000000000000E+00
      0.00000000000000E+00   3.07846322254840E-15
      4.18711111111111E-01
      0.00000000000000E+00   0.00000000000000E+00   0.00000000000000E+00   0.00000000000000E+00  -3.59113543419294E-18
     -1.53128727507620E-03  -1.53128727507620E-03   3.36876445401555E-17   0.00000000000000E+00   0.00000000000000E+00
      0.00000000000000E+00   0.00000000000000E+00  -1.91421211312656E-19  -1.84895788703662E-02  -1.84895788703662E-02
     -1.68234399700204E-15   1.25613333333333E+00   1.25613333333333E+00   0.00000000000000E+00   0.00000000000000E+00
      1.03312867399515E-18   2.00208661454424E-02   2.00208661454424E-02  -1.39300058202973E-15   3.00000000000000E+00
      3.00000000000000E+00   0.00000000000000E+00   0.00000000000000E+00   0.00000000000000E+00   0.00000000000000E+00
      0.00000000000000E+00   3.04165693449162E-15
      4.43711111111111E-01
      0.00000000000000E+00   0.00000000000000E+00   0.00000000000000E+00   0.00000000000000E+00  -3.78158875205282E-18
     -1.61820597908263E-03  -1.61820597908264E-03   3.37156919440660E-17   0.00000000000000E+00   0.00000000000000E+00
      0.00000000000000E+00   0.00000000000000E+00  -2.02795849651306E-19  -1.95831624299532E-02  -1.95831624299532E-02
     -1.66417115299278E-15   1.33113333333333E+00   1.33113333333333E+00   0.00000000000000E+00   0.00000000000000E+00
      1.15008720113898E-18   2.12013684090359E-02   2.12013684090359E-02  -1.37441819018367E-15   3.00000000000000E+00
      3.00000000000000E+00   0.00000000000000E+00   0.00000000000000E+00   0.00000000000000E+00   0.00000000000000E+00
      0.00000000000000E+00   3.00487365123238E-15
      4.68711111111111E-01
      0.00000000000000E+00   0.00000000000000E+00   0.00000000000000E+00   0.00000000000000E+00  -3.96954691954528E-18
     -1.70459960349194E-03  -1.70459960349194E-03   3.37440509171892E-17   0.00000000000000E+00   0.00000000000000E+00
      0.00000000000000E+00   0.00000000000000E+00  -2.14154377215383E-19  -2.06754757902309E-02  -2.06754757902309E-02
     -1.64600923780519E-15   1.40613333333333E+00   1.40613333333333E+00   0.00000000000000E+00   0.00000000000000E+00
      1.27059364773624E-18   2.23800753937229E-02   2.23800753937229E-02  -1.35584712006466E-15   3.00000000000000E+00
      3.00000000000000E+00   0.00000000000000E+00   0.00000000000000E+00   0.00000000000000E+00   0.00000000000000E+00
      0.00000000000000E+00   2.96811230695266E-15
      4.93711111111111E-01
      0.00000000000000E+00   0.00000000000000E+00   0.00000000000000E+00   0.00000000000000E+00  -4.15504844149848E-18
     -1.79046846796827E-03  -1.79046846796828E-03   3.37727209245916E-17   0.00000000000000E+00   0.00000000000000E+00
      0.00000000000000E+00   0.00000000000000E+00  -2.25497583222012E-19  -2.17665090652987E-02  -2.17665090652987E-02
     -1.62785768745772E-15   1.48113333333333E+00   1.48113333333333E+00   0.00000000000000E+00   0.00000000000000E+00
      1.39421677972715E-18   2.35569775332670E-02   2.35569775332670E-02  -1.33728688933881E-15   3.00000000000000E+00
      3.00000000000000E+00   0.00000000000000E+00   0.00000000000000E+00   0.00000000000000E+00   0.00000000000000E+00
      0.00000000000000E+00   2.93137185587193E-15
      5.18711111111111E-01
      0.00000000000000E+00   0.00000000000000E+00   0.00000000000000E+00   0.00000000000000E+00  -4.33813170764248E-18
     -1.87581314986618E-03  -1.87581314986618E-03   3.38017012948250E-17   0.00000000000000E+00   0.00000000000000E+00
      0.00000000000000E+00   0.00000000000000E+00  -2.36826129460637E-19  -2.28562528286031E-02  -2.28562528286031E-02
     -1.60971595078316E-15   1.55613333333333E+00   1.55613333333333E+00   0.00000000000000E+00   0.00000000000000E+00
      1.52056204639299E-18   2.47320659784693E-02   2.47320659784693E-02  -1.31873702562688E-15   3.00000000000000E+00
      3.00000000000000E+00   0.00000000000000E+00   0.00000000000000E+00   0.00000000000000E+00   0.00000000000000E+00
      0.00000000000000E+00   2.89465127511521E-15
      5.43711111111111E-01
      0.00000000000000E+00   0.00000000000000E+00   0.00000000000000E+00   0.00000000000000E+00  -4.51883488018289E-18
     -1.96063444445643E-03  -1.96063444445643E-03   3.38309912474103E-17   0.00000000000000E+00   0.00000000000000E+00
      0.00000000000000E+00   0.00000000000000E+00  -2.48140570912942E-19  -2.39446981093563E-02  -2.39446981093563E-02
     -1.59158349238118E-15   1.63113333333333E+00   1.63113333333333E+00   0.00000000000000E+00   0.00000000000000E+00
      1.64927015594860E-18   2.59053325538128E-02   2.59053325538128E-02  -1.30019707026495E-15   3.00000000000000E+00
      3.00000000000000E+00   0.00000000000000E+00   0.00000000000000E+00   0.00000000000000E+00   0.00000000000000E+00
      0.00000000000000E+00   2.85794957139871E-15
      5.68711111111111E-01
      0.00000000000000E+00   0.00000000000000E+00   0.00000000000000E+00   0.00000000000000E+00  -4.69719580381470E-18
     -2.04493333192838E-03  -2.04493333192839E-03   3.38605899222662E-17   0.00000000000000E+00   0.00000000000000E+00
      0.00000000000000E+00   0.00000000000000E+00  -2.59441372149107E-19  -2.50318362506042E-02  -2.50318362506042E-02
     -1.57345979458157E-15   1.70613333333333E+00   1.70613333333333E+00   0.00000000000000E+00   0.00000000000000E+00
      1.78001504851167E-18   2.70767695825326E-02   2.70767695825326E-02  -1.28166658056332E-15   3.00000000000000E+00
      3.00000000000000E+00   0.00000000000000E+00   0.00000000000000E+00   0.00000000000000E+00   0.00000000000000E+00
      0.00000000000000E+00   2.82126578522263E-15
      5.93711111111111E-01
      0.00000000000000E+00   0.00000000000000E+00   0.00000000000000E+00   0.00000000000000E+00  -4.87325193456829E-18
     -2.12871095004534E-03  -2.12871095004535E-03   3.38904963794017E-17   0.00000000000000E+00   0.00000000000000E+00
      0.00000000000000E+00   0.00000000000000E+00  -2.70728921496172E-19  -2.61176588162413E-02  -2.61176588162413E-02
     -1.55534435905906E-15   1.78113333333333E+00   1.78113333333333E+00   0.00000000000000E+00   0.00000000000000E+00
      1.91250155820974E-18   2.82463697662866E-02   2.82463697662866E-02  -1.26314513021406E-15   3.00000000000000E+00
      3.00000000000000E+00   0.00000000000000E+00   0.00000000000000E+00   0.00000000000000E+00   0.00000000000000E+00
      0.00000000000000E+00   2.78459899289372E-15
      6.18711111111111E-01
      0.00000000000000E+00   0.00000000000000E+00   0.00000000000000E+00   0.00000000000000E+00  -5.04704028080707E-18
     -2.21196856987121E-03  -2.21196856987121E-03   3.39207096352128E-17   0.00000000000000E+00   0.00000000000000E+00
      0.00000000000000E+00   0.00000000000000E+00  -2.82003543816113E-19  -2.72021576012098E-02  -2.72021576012098E-02
     -1.53723670920291E-15   1.85613333333333E+00   1.85613333333333E+00   0.00000000000000E+00   0.00000000000000E+00
      2.04646295661009E-18   2.94141261710810E-02   2.94141261710810E-02  -1.24463231196627E-15   3.00000000000000E+00
      3.00000000000000E+00   0.00000000000000E+00   0.00000000000000E+00   0.00000000000000E+00   0.00000000000000E+00
      0.00000000000000E+00   2.74794831153397E-15
      6.43711111111111E-01
      0.00000000000000E+00   0.00000000000000E+00   0.00000000000000E+00   0.00000000000000E+00  -5.21859736145645E-18
     -2.29470757751317E-03  -2.29470757751318E-03   3.39512286231804E-17   0.00000000000000E+00   0.00000000000000E+00
      0.00000000000000E+00   0.00000000000000E+00  -2.93265510629252E-19  -2.82853245904156E-02  -2.82853245904156E-02
     -1.51913638936009E-15   1.93113333333333E+00   1.93113333333333E+00   0.00000000000000E+00   0.00000000000000E+00
      2.18165849846418E-18   3.05800321679288E-02   3.05800321679288E-02  -1.22612773648961E-15   3.00000000000000E+00
      3.00000000000000E+00   0.00000000000000E+00   0.00000000000000E+00   0.00000000000000E+00   0.00000000000000E+00
      0.00000000000000E+00   2.71131289722652E-15
      6.68711111111111E-01
      0.00000000000000E+00   0.00000000000000E+00   0.00000000000000E+00   0.00000000000000E+00  -5.38795917166827E-18
     -2.37692945766968E-03  -2.37692945766968E-03   3.39820522244730E-17   0.00000000000000E+00   0.00000000000000E+00
      0.00000000000000E+00   0.00000000000000E+00  -3.04515048252769E-19  -2.93671518983169E-02  -2.93671518983169E-02
     -1.50104296585460E-15   2.00613333333333E+00   2.00613333333333E+00   0.00000000000000E+00   0.00000000000000E+00
      2.31787105277616E-18   3.17440813559866E-02   3.17440813559866E-02  -1.20763103374220E-15   3.00000000000000E+00
      3.00000000000000E+00   0.00000000000000E+00   0.00000000000000E+00   0.00000000000000E+00   0.00000000000000E+00
      0.00000000000000E+00   2.67469194737232E-15
      6.93711111111111E-01
      0.00000000000000E+00   0.00000000000000E+00   0.00000000000000E+00   0.00000000000000E+00  -5.55516115739220E-18
     -2.45863578001399E-03  -2.45863578001399E-03   3.40131792862771E-17   0.00000000000000E+00   0.00000000000000E+00
      0.00000000000000E+00   0.00000000000000E+00  -3.15752345005597E-19  -3.04476317614405E-02  -3.04476317614405E-02
     -1.48295602789865E-15   2.08113333333333E+00   2.08113333333333E+00   0.00000000000000E+00   0.00000000000000E+00
      2.45490487029154E-18   3.29062675414545E-02   3.29062675414545E-02  -1.18914185372000E-15   3.00000000000000E+00
      3.00000000000000E+00   0.00000000000000E+00   0.00000000000000E+00   0.00000000000000E+00   0.00000000000000E+00
      0.00000000000000E+00   2.63808470233237E-15
      7.18711111111111E-01
      0.00000000000000E+00   0.00000000000000E+00   0.00000000000000E+00   0.00000000000000E+00  -5.72023819903787E-18
     -2.53982818882813E-03  -2.53982818882814E-03   3.40446086081187E-17   0.00000000000000E+00   0.00000000000000E+00
      0.00000000000000E+00   0.00000000000000E+00  -3.26977557059677E-19  -3.15267565184676E-02  -3.15267565184676E-02
     -1.46487518683841E-15   2.15613333333333E+00   2.15613333333333E+00   0.00000000000000E+00   0.00000000000000E+00
      2.59258351077517E-18   3.40665847072957E-02   3.40665847072957E-02  -1.17065986569566E-15   3.00000000000000E+00
      3.00000000000000E+00   0.00000000000000E+00   0.00000000000000E+00   0.00000000000000E+00   0.00000000000000E+00
      0.00000000000000E+00   2.60149044392595E-15
      7.43711111111111E-01
      0.00000000000000E+00   0.00000000000000E+00   0.00000000000000E+00   0.00000000000000E+00  -5.88322459962558E-18
     -2.62050839390695E-03  -2.62050839390696E-03   3.40763389658026E-17   0.00000000000000E+00   0.00000000000000E+00
      0.00000000000000E+00   0.00000000000000E+00  -3.38190813501125E-19  -3.26045186113257E-02  -3.26045186113257E-02
     -1.44680007668538E-15   2.23113333333333E+00   2.23113333333333E+00   0.00000000000000E+00   0.00000000000000E+00
      2.73074794217797E-18   3.52250270052327E-02   3.52250270052327E-02  -1.15218475889801E-15   3.00000000000000E+00
      3.00000000000000E+00   0.00000000000000E+00   0.00000000000000E+00   0.00000000000000E+00   0.00000000000000E+00
      0.00000000000000E+00   2.56490849661758E-15
      7.68711111111111E-01
      0.00000000000000E+00   0.00000000000000E+00   0.00000000000000E+00   0.00000000000000E+00  -6.04415407952208E-18
     -2.70067816396548E-03  -2.70067816396549E-03   3.41083690925597E-17   0.00000000000000E+00   0.00000000000000E+00
      0.00000000000000E+00   0.00000000000000E+00  -3.49392220572744E-19  -3.36809105873451E-02  -3.36809105873451E-02
     -1.42873035308887E-15   2.30613333333333E+00   2.30613333333333E+00   0.00000000000000E+00   0.00000000000000E+00
      2.86925481070310E-18   3.63815887513106E-02   3.63815887513106E-02  -1.13371624133965E-15   3.00000000000000E+00
      3.00000000000000E+00   0.00000000000000E+00   0.00000000000000E+00   0.00000000000000E+00   0.00000000000000E+00
      0.00000000000000E+00   2.52833822533597E-15
      7.93711111111111E-01
      0.00000000000000E+00   0.00000000000000E+00   0.00000000000000E+00   0.00000000000000E+00  -6.20305977356953E-18
     -2.78033932066254E-03  -2.78033932066255E-03   3.41406977017920E-17   0.00000000000000E+00   0.00000000000000E+00
      0.00000000000000E+00   0.00000000000000E+00  -3.60581864966347E-19  -3.47559250758873E-02  -3.47559250758873E-02
     -1.41066569319739E-15   2.38113333333333E+00   2.38113333333333E+00   0.00000000000000E+00   0.00000000000000E+00
      3.00797487507875E-18   3.75362643965498E-02   3.75362643965498E-02  -1.11525403984933E-15   3.00000000000000E+00
      3.00000000000000E+00   0.00000000000000E+00   0.00000000000000E+00   0.00000000000000E+00   0.00000000000000E+00
      0.00000000000000E+00   2.49177903534493E-15
      8.18711111111112E-01
      0.00000000000000E+00   0.00000000000000E+00   0.00000000000000E+00   0.00000000000000E+00  -6.35997423212835E-18
     -2.85949373411894E-03  -2.85949373411895E-03   3.41733234869267E-17   0.00000000000000E+00   0.00000000000000E+00
      0.00000000000000E+00   0.00000000000000E+00  -3.71759816975931E-19  -3.58295548059974E-02  -3.58295548059974E-02
     -1.39260579508639E-15   2.45613333333333E+00   2.45613333333334E+00   0.00000000000000E+00   0.00000000000000E+00
      3.14679159792117E-18   3.86890485401163E-02   3.86890485401163E-02  -1.09679789949577E-15   3.00000000000000E+00
      3.00000000000000E+00   0.00000000000000E+00   0.00000000000000E+00   0.00000000000000E+00   0.00000000000000E+00
      0.00000000000000E+00   2.45523037109523E-15
      8.43711111111112E-01
      0.00000000000000E+00   0.00000000000000E+00   0.00000000000000E+00   0.00000000000000E+00  -6.51492942560702E-18
     -2.93814331985079E-03  -2.93814331985080E-03   3.42062451117863E-17   0.00000000000000E+00   0.00000000000000E+00
      0.00000000000000E+00   0.00000000000000E+00  -3.82926133060688E-19  -3.69017926123488E-02  -3.69017926123488E-02
     -1.37455037660535E-15   2.53113333333333E+00   2.53113333333333E+00   0.00000000000000E+00   0.00000000000000E+00
      3.28559988083255E-18   3.98399359321996E-02   3.98399359321996E-02  -1.07834758246937E-15   3.00000000000000E+00
      3.00000000000000E+00   0.00000000000000E+00   0.00000000000000E+00   0.00000000000000E+00   0.00000000000000E+00
      0.00000000000000E+00   2.41869171396293E-15
      8.68711111111112E-01
      0.00000000000000E+00   0.00000000000000E+00   0.00000000000000E+00   0.00000000000000E+00  -6.66795698947016E-18