DF-ISE text

Info {
  version   = 1.0
  type      = xyplot
  datasets  = [
    "time"
    "substrate OuterVoltage" "substrate InnerVoltage" "substrate QuasiFermiPotential" "substrate DisplacementCurrent" "substrate eCurrent"
    "substrate hCurrent" "substrate TotalCurrent" "substrate Charge" "source OuterVoltage" "source InnerVoltage"
    "source QuasiFermiPotential" "source DisplacementCurrent" "source eCurrent" "source hCurrent" "source TotalCurrent"
    "source Charge" "drain OuterVoltage" "drain InnerVoltage" "drain QuasiFermiPotential" "drain DisplacementCurrent"
    "drain eCurrent" "drain hCurrent" "drain TotalCurrent" "drain Charge" "gate OuterVoltage"
    "gate InnerVoltage" "gate QuasiFermiPotential" "gate DisplacementCurrent" "gate eCurrent" "gate hCurrent"
    "gate TotalCurrent" "gate Charge" ]
  functions = [
    Time
    OuterVoltage InnerVoltage QuasiFermiPotential DisplacementCurrent eCurrent
    hCurrent TotalCurrent Charge OuterVoltage InnerVoltage
    QuasiFermiPotential DisplacementCurrent eCurrent hCurrent TotalCurrent
    Charge OuterVoltage InnerVoltage QuasiFermiPotential DisplacementCurrent
    eCurrent hCurrent TotalCurrent Charge OuterVoltage
    InnerVoltage QuasiFermiPotential DisplacementCurrent eCurrent hCurrent
    TotalCurrent Charge ]
}

Data {
      0.00000000000000E+00
      0.00000000000000E+00   0.00000000000000E+00   0.00000000000000E+00   0.00000000000000E+00  -4.43327238500834E-18
     -4.10246516365111E-27  -4.43327238911080E-18  -5.38046905856328E-15   0.00000000000000E+00   0.00000000000000E+00
      0.00000000000000E+00   0.00000000000000E+00   2.22297940478121E-18   2.52646114135362E-27   2.22297940730768E-18
      1.41118070862046E-15   0.00000000000000E+00   0.00000000000000E+00   0.00000000000000E+00   0.00000000000000E+00
      2.21029298022703E-18   1.57609533954252E-27   2.21029298180313E-18   1.41118070862046E-15   3.00000000000000E+00
      3.00000000000000E+00   0.00000000000000E+00   0.00000000000000E+00   0.00000000000000E+00   0.00000000000000E+00
      0.00000000000000E+00   2.55810764132236E-15
      1.00000000000000E-02
      0.00000000000000E+00   0.00000000000000E+00   0.00000000000000E+00   0.00000000000000E+00  -5.74221339499293E-18
     -3.34840776144056E-17  -3.92262910093985E-17  -5.40163947424502E-15   0.00000000000000E+00   0.00000000000000E+00
      0.00000000000000E+00   0.00000000000000E+00  -5.40343014784411E-06  -5.11258502250247E-25  -5.40343014784411E-06
      1.41111484151697E-15   3.00000000000000E-02   3.00000000000000E-02   0.00000000000000E+00   0.00000000000000E+00
      5.40343014788330E-06   2.47820141731461E-20   5.40343014788333E-06   1.44689313828485E-15   3.00000000000000E+00
      3.00000000000000E+00   0.00000000000000E+00   0.00000000000000E+00   0.00000000000000E+00   0.00000000000000E+00
      0.00000000000000E+00   2.54363149444321E-15
      2.33333333333333E-02
      0.00000000000000E+00   0.00000000000000E+00   0.00000000000000E+00   0.00000000000000E+00   8.99557459651201E-17
     -6.93858384949582E-17   2.05699074701619E-17  -5.42950767143610E-15   0.00000000000000E+00   0.00000000000000E+00
      0.00000000000000E+00   0.00000000000000E+00  -1.15141677358318E-05  -1.08160771127400E-24  -1.15141677358318E-05
      1.41103725603840E-15   7.00000000000000E-02   7.00000000000000E-02   0.00000000000000E+00   0.00000000000000E+00
      1.15141677358112E-05   3.31936364119403E-20   1.15141677358112E-05   1.49362526651149E-15   3.00000000000000E+00
      3.00000000000000E+00   0.00000000000000E+00   0.00000000000000E+00   0.00000000000000E+00   0.00000000000000E+00
      0.00000000000000E+00   2.52484514888621E-15
      4.24444444444445E-02
      0.00000000000000E+00   0.00000000000000E+00   0.00000000000000E+00   0.00000000000000E+00   2.09239165157021E-15
     -1.24622839747646E-16   1.96776881182257E-15  -5.46898292552768E-15   0.00000000000000E+00   0.00000000000000E+00
      0.00000000000000E+00   0.00000000000000E+00  -1.82741613106596E-05  -1.71943823258102E-24  -1.82741613106596E-05
      1.41094706810536E-15   1.27333333333333E-01   1.27333333333333E-01   0.00000000000000E+00   0.00000000000000E+00
      1.82741613086918E-05   3.40514444888621E-20   1.82741613086918E-05   1.55883627304415E-15   3.00000000000000E+00
      3.00000000000000E+00   0.00000000000000E+00   0.00000000000000E+00   0.00000000000000E+00   0.00000000000000E+00
      0.00000000000000E+00   2.49919958437817E-15
      6.74444444444444E-02
      0.00000000000000E+00   0.00000000000000E+00   0.00000000000000E+00   0.00000000000000E+00  -2.65793543625798E-18
     -2.37382264405556E-16  -2.40040199841814E-16  -5.52058506599047E-15   0.00000000000000E+00   0.00000000000000E+00
      0.00000000000000E+00   0.00000000000000E+00  -2.41050086174814E-05  -2.27489624342744E-24  -2.41050086174814E-05
      1.41086518285149E-15   2.02333333333333E-01   2.02333333333333E-01   0.00000000000000E+00   0.00000000000000E+00
      2.41050086177214E-05  -1.33735484382950E-21   2.41050086177214E-05   1.64107520938362E-15   3.00000000000000E+00
      3.00000000000000E+00   0.00000000000000E+00   0.00000000000000E+00   0.00000000000000E+00   0.00000000000000E+00
      0.00000000000000E+00   2.46864467375536E-15
      9.24444444444444E-02
      0.00000000000000E+00   0.00000000000000E+00   0.00000000000000E+00   0.00000000000000E+00   2.55340473754795E-18
     -3.73738220632222E-16  -3.71184815894674E-16  -5.57351946757607E-15   0.00000000000000E+00   0.00000000000000E+00
      0.00000000000000E+00   0.00000000000000E+00  -2.73192075771409E-05  -2.56735007348302E-24  -2.73192075771409E-05
      1.41081827578588E-15   2.77333333333333E-01   2.77333333333333E-01   0.00000000000000E+00   0.00000000000000E+00
      2.73192075775120E-05   3.41713153092216E-20   2.73192075775121E-05   1.72027656273044E-15   3.00000000000000E+00
      3.00000000000000E+00   0.00000000000000E+00   0.00000000000000E+00   0.00000000000000E+00   0.00000000000000E+00
      0.00000000000000E+00   2.44242462905974E-15
      1.17444444444444E-01
      0.00000000000000E+00   0.00000000000000E+00   0.00000000000000E+00   0.00000000000000E+00  -2.65629687599104E-18
     -4.62557690598089E-16  -4.65213987474080E-16  -5.62891286349807E-15   0.00000000000000E+00   0.00000000000000E+00
      0.00000000000000E+00   0.00000000000000E+00  -2.88516015878856E-05  -2.71647822224683E-24  -2.88516015878856E-05
      1.41079544285631E-15   3.52333333333333E-01   3.52333333333333E-01   0.00000000000000E+00   0.00000000000000E+00
      2.88516015883508E-05   3.69007225123394E-20   2.88516015883508E-05   1.79724490959244E-15   3.00000000000000E+00
      3.00000000000000E+00   0.00000000000000E+00   0.00000000000000E+00   0.00000000000000E+00   0.00000000000000E+00
      0.00000000000000E+00   2.42087251104933E-15
      1.42444444444444E-01
      0.00000000000000E+00   0.00000000000000E+00   0.00000000000000E+00   0.00000000000000E+00  -2.79691512486318E-17
     -5.09023512580575E-16  -5.36992663829207E-16  -5.68658934571037E-15   0.00000000000000E+00   0.00000000000000E+00
      0.00000000000000E+00   0.00000000000000E+00  -2.95719458766364E-05  -2.82495858734545E-24  -2.95719458766364E-05
      1.41078460143304E-15   4.27333333333333E-01   4.27333333333333E-01   0.00000000000000E+00   0.00000000000000E+00
      2.95719458771734E-05   4.84810696951836E-20   2.95719458771734E-05   1.87280151147189E-15   3.00000000000000E+00
      3.00000000000000E+00   0.00000000000000E+00   0.00000000000000E+00   0.00000000000000E+00   0.00000000000000E+00
      0.00000000000000E+00   2.40300323280545E-15
      1.67444444444444E-01
      0.00000000000000E+00   0.00000000000000E+00   0.00000000000000E+00   0.00000000000000E+00  -2.25612610539472E-16
     -5.43527259649669E-16  -7.69139870189141E-16  -5.74576255554689E-15   0.00000000000000E+00   0.00000000000000E+00
      0.00000000000000E+00   0.00000000000000E+00  -2.99838160738898E-05  -2.82808415153006E-24  -2.99838160738898E-05
      1.41077837106205E-15   5.02333333333333E-01   5.02333333333333E-01   0.00000000000000E+00   0.00000000000000E+00
      2.99838160746589E-05   3.36000234804412E-20   2.99838160746589E-05   1.94752060580378E-15   3.00000000000000E+00
      3.00000000000000E+00   0.00000000000000E+00   0.00000000000000E+00   0.00000000000000E+00   0.00000000000000E+00
      0.00000000000000E+00   2.38746357868107E-15
      1.92444444444444E-01
      0.00000000000000E+00   0.00000000000000E+00   0.00000000000000E+00   0.00000000000000E+00  -5.22205792804958E-16
     -5.74468347329344E-16  -1.09667414013430E-15  -5.80575891296180E-15   0.00000000000000E+00   0.00000000000000E+00
      0.00000000000000E+00   0.00000000000000E+00  -3.02733819924539E-05  -2.85492750549230E-24  -3.02733819924539E-05
      1.41077397691381E-15   5.77333333333333E-01   5.77333333333333E-01   0.00000000000000E+00   0.00000000000000E+00
      3.02733819935505E-05   3.28925053083239E-20   3.02733819935506E-05   2.02169639103417E-15   3.00000000000000E+00
      3.00000000000000E+00   0.00000000000000E+00   0.00000000000000E+00   0.00000000000000E+00   0.00000000000000E+00
      0.00000000000000E+00   2.37328854501382E-15
      2.17444444444444E-01
      0.00000000000000E+00   0.00000000000000E+00   0.00000000000000E+00   0.00000000000000E+00   3.90307273840081E-16
     -6.05662037893886E-16  -2.15354764053804E-16  -5.86633302956277E-15   0.00000000000000E+00   0.00000000000000E+00
      0.00000000000000E+00   0.00000000000000E+00  -3.04998042946893E-05  -2.87467677906257E-24  -3.04998042946893E-05
      1.41077053293900E-15   6.52333333333333E-01   6.52333333333333E-01   0.00000000000000E+00   0.00000000000000E+00
      3.04998042949047E-05   7.19271339477280E-21   3.04998042949047E-05   2.09548350948038E-15   3.00000000000000E+00
      3.00000000000000E+00   0.00000000000000E+00   0.00000000000000E+00   0.00000000000000E+00   0.00000000000000E+00
      0.00000000000000E+00   2.36007898714340E-15
      2.42444444444444E-01
      0.00000000000000E+00   0.00000000000000E+00   0.00000000000000E+00   0.00000000000000E+00  -9.25596817053411E-19
     -6.38383227226897E-16  -6.39308824043950E-16  -5.92728066463377E-15   0.00000000000000E+00   0.00000000000000E+00
      0.00000000000000E+00   0.00000000000000E+00  -3.06884108454425E-05  -2.89247687184357E-24  -3.06884108454425E-05
      1.41076765875501E-15   7.27333333333333E-01   7.27333333333333E-01   0.00000000000000E+00   0.00000000000000E+00
      3.06884108460817E-05   3.68223363964329E-20   3.06884108460818E-05   2.16893225859882E-15   3.00000000000000E+00
      3.00000000000000E+00   0.00000000000000E+00   0.00000000000000E+00   0.00000000000000E+00   0.00000000000000E+00
      0.00000000000000E+00   2.34758074727995E-15
      2.67444444444444E-01
      0.00000000000000E+00   0.00000000000000E+00   0.00000000000000E+00   0.00000000000000E+00   5.56937505242904E-14
     -6.73401411787388E-16   5.50203491125030E-14  -5.98838404634160E-15   0.00000000000000E+00   0.00000000000000E+00
      0.00000000000000E+00   0.00000000000000E+00  -3.08535989193661E-05  -2.90757468748713E-24  -3.08535989193661E-05
      1.41076513739843E-15   8.02333333333333E-01   8.02333333333333E-01   0.00000000000000E+00   0.00000000000000E+00
      3.08535988643458E-05  -2.59065555453363E-20   3.08535988643458E-05   2.24203420194559E-15   3.00000000000000E+00
      3.00000000000000E+00   0.00000000000000E+00   0.00000000000000E+00   0.00000000000000E+00   0.00000000000000E+00
      0.00000000000000E+00   2.33558470699758E-15
      2.92444444444444E-01
      0.00000000000000E+00   0.00000000000000E+00   0.00000000000000E+00   0.00000000000000E+00   3.89629599722857E-19
     -7.16241686887419E-16  -7.15852057287696E-16  -6.04948997136083E-15   0.00000000000000E+00   0.00000000000000E+00
      0.00000000000000E+00   0.00000000000000E+00  -3.10030404594016E-05  -2.91755696257149E-24  -3.10030404594016E-05
      1.41076285312327E-15   8.77333333333333E-01   8.77333333333334E-01   0.00000000000000E+00   0.00000000000000E+00
      3.10030404601173E-05   3.56334225815091E-20   3.10030404601174E-05   2.31476470542805E-15   3.00000000000000E+00
      3.00000000000000E+00   0.00000000000000E+00   0.00000000000000E+00   0.00000000000000E+00   0.00000000000000E+00
      0.00000000000000E+00   2.32396241280950E-15
      3.17444444444444E-01
      0.00000000000000E+00   0.00000000000000E+00   0.00000000000000E+00   0.00000000000000E+00   1.62538860759236E-18
     -7.73092003808766E-16  -7.71466615201173E-16  -6.11055656880352E-15   0.00000000000000E+00   0.00000000000000E+00
      0.00000000000000E+00   0.00000000000000E+00  -3.11402567988682E-05  -2.93400502353380E-24  -3.11402567988682E-05
      1.41076075297466E-15   9.52333333333333E-01   9.52333333333333E-01   0.00000000000000E+00   0.00000000000000E+00
      3.11402567996396E-05   3.64405182963607E-20   3.11402567996396E-05   2.38711887505345E-15   3.00000000000000E+00
      3.00000000000000E+00   0.00000000000000E+00   0.00000000000000E+00   0.00000000000000E+00   0.00000000000000E+00
      0.00000000000000E+00   2.31267694077542E-15
      3.42444444444444E-01
      0.00000000000000E+00   0.00000000000000E+00   0.00000000000000E+00   0.00000000000000E+00  -4.35507661430381E-18
     -8.49876111629673E-16  -8.54231188243977E-16  -6.17163862861449E-15   0.00000000000000E+00   0.00000000000000E+00
      0.00000000000000E+00   0.00000000000000E+00  -3.12665618787460E-05  -2.94403652993011E-24  -3.12665618787460E-05
      1.41075881750198E-15   1.02733333333333E+00   1.02733333333333E+00   0.00000000000000E+00   0.00000000000000E+00
      3.12665618796001E-05   3.67669788383342E-20   3.12665618796002E-05   2.45911974407668E-15   3.00000000000000E+00
      3.00000000000000E+00   0.00000000000000E+00   0.00000000000000E+00   0.00000000000000E+00   0.00000000000000E+00
      0.00000000000000E+00   2.30176006703582E-15
      3.67444444444445E-01
      0.00000000000000E+00   0.00000000000000E+00   0.00000000000000E+00   0.00000000000000E+00  -1.84471491122839E-19
     -9.49446988345881E-16  -9.49631459837004E-16  -6.23284875593663E-15   0.00000000000000E+00   0.00000000000000E+00
      0.00000000000000E+00   0.00000000000000E+00  -3.13823774730739E-05  -2.96157940167148E-24  -3.13823774730739E-05
      1.41075704080445E-15   1.10233333333333E+00   1.10233333333333E+00   0.00000000000000E+00   0.00000000000000E+00
      3.13823774740235E-05   3.67635558932417E-20   3.13823774740235E-05   2.53081069457245E-15   3.00000000000000E+00
      3.00000000000000E+00   0.00000000000000E+00   0.00000000000000E+00   0.00000000000000E+00   0.00000000000000E+00
      0.00000000000000E+00   2.29128102055973E-15
      3.92444444444445E-01
      0.00000000000000E+00   0.00000000000000E+00   0.00000000000000E+00   0.00000000000000E+00   2.33134322213714E-18
     -1.07388393260902E-15  -1.07155258938689E-15  -6.29426698813734E-15   0.00000000000000E+00   0.00000000000000E+00
      0.00000000000000E+00   0.00000000000000E+00  -3.14883477614036E-05  -2.97035040674656E-24  -3.14883477614036E-05
      1.41075541349188E-15   1.17733333333333E+00   1.17733333333333E+00   0.00000000000000E+00   0.00000000000000E+00
      3.14883477624751E-05   3.67639309682450E-20   3.14883477624751E-05   2.60221990227184E-15   3.00000000000000E+00
      3.00000000000000E+00   0.00000000000000E+00   0.00000000000000E+00   0.00000000000000E+00   0.00000000000000E+00
      0.00000000000000E+00   2.28129167237362E-15
      4.17444444444445E-01
      0.00000000000000E+00   0.00000000000000E+00   0.00000000000000E+00   0.00000000000000E+00   3.10737752756260E-18
     -1.22298707849422E-15  -1.21987970096666E-15  -6.35588769652208E-15   0.00000000000000E+00   0.00000000000000E+00
      0.00000000000000E+00   0.00000000000000E+00  -3.15855074024208E-05  -2.97901007563326E-24  -3.15855074024208E-05
      1.41075392009052E-15   1.25233333333333E+00   1.25233333333333E+00   0.00000000000000E+00   0.00000000000000E+00
      3.15855074036406E-05   3.67674635407630E-20   3.15855074036407E-05   2.67332916572007E-15   3.00000000000000E+00
      3.00000000000000E+00   0.00000000000000E+00   0.00000000000000E+00   0.00000000000000E+00   0.00000000000000E+00
      0.00000000000000E+00   2.27180461071151E-15
      4.42444444444445E-01
      0.00000000000000E+00   0.00000000000000E+00   0.00000000000000E+00   0.00000000000000E+00  -5.40596598799897E-15
     -1.37637597034189E-15  -6.78234195834086E-15  -6.41755702728696E-15   0.00000000000000E+00   0.00000000000000E+00
      0.00000000000000E+00   0.00000000000000E+00  -3.16752784657074E-05  -2.98625053556235E-24  -3.16752784657074E-05
      1.41075253907375E-15   1.32733333333333E+00   1.32733333333333E+00   0.00000000000000E+00   0.00000000000000E+00
      3.16752784724897E-05   3.67732287772979E-20   3.16752784724898E-05   2.74402510709042E-15   3.00000000000000E+00
      3.00000000000000E+00   0.00000000000000E+00   0.00000000000000E+00   0.00000000000000E+00   0.00000000000000E+00
      0.00000000000000E+00   2.26277938112279E-15
      4.67444444444445E-01
      0.00000000000000E+00   0.00000000000000E+00   0.00000000000000E+00   0.00000000000000E+00   2.38977603767176E-15
     -1.49879696179768E-15   8.90979075874083E-16  -6.47895076478280E-15   0.00000000000000E+00   0.00000000000000E+00
      0.00000000000000E+00   0.00000000000000E+00  -3.17591846359031E-05  -2.99322401802533E-24  -3.17591846359031E-05
      1.41075124725272E-15   1.40233333333333E+00   1.40233333333333E+00   0.00000000000000E+00   0.00000000000000E+00
      3.17591846350121E-05   3.67805959919192E-20   3.17591846350122E-05   2.81406207199895E-15   3.00000000000000E+00
      3.00000000000000E+00   0.00000000000000E+00   0.00000000000000E+00   0.00000000000000E+00   0.00000000000000E+00
      0.00000000000000E+00   2.25413744553114E-15
      4.92444444444445E-01
      0.00000000000000E+00   0.00000000000000E+00   0.00000000000000E+00   0.00000000000000E+00   1.44448331848047E-16
     -1.57702317773424E-15  -1.43257484588620E-15  -6.53957448492419E-15   0.00000000000000E+00   0.00000000000000E+00
      0.00000000000000E+00   0.00000000000000E+00  -3.18388480687742E-05  -2.99675372776471E-24  -3.18388480687742E-05
      1.41075001983190E-15   1.47733333333333E+00   1.47733333333333E+00   0.00000000000000E+00   0.00000000000000E+00
      3.18388480702068E-05   3.67885868477001E-20   3.18388480702068E-05   2.88306358192773E-15   3.00000000000000E+00
      3.00000000000000E+00   0.00000000000000E+00   0.00000000000000E+00   0.00000000000000E+00   0.00000000000000E+00
      0.00000000000000E+00   2.24576088316456E-15
      5.17444444444445E-01
      0.00000000000000E+00   0.00000000000000E+00   0.00000000000000E+00   0.00000000000000E+00   2.14977136290352E-18
     -1.62359962828394E-15  -1.62144985692104E-15  -6.59901951982995E-15   0.00000000000000E+00   0.00000000000000E+00
      0.00000000000000E+00   0.00000000000000E+00  -3.19155920871820E-05  -3.00910537142467E-24  -3.19155920871820E-05
      1.41074883654246E-15   1.55233333333333E+00   1.55233333333333E+00   0.00000000000000E+00   0.00000000000000E+00
      3.19155920888034E-05   3.67967387704566E-20   3.19155920888034E-05   2.95072945154650E-15   3.00000000000000E+00
      3.00000000000000E+00   0.00000000000000E+00   0.00000000000000E+00   0.00000000000000E+00   0.00000000000000E+00
      0.00000000000000E+00   2.23754123174099E-15
      5.42444444444445E-01
      0.00000000000000E+00   0.00000000000000E+00   0.00000000000000E+00   0.00000000000000E+00  -9.16379190072432E-19
     -1.65413075606613E-15  -1.65504713525620E-15  -6.65720328713402E-15   0.00000000000000E+00   0.00000000000000E+00
      0.00000000000000E+00   0.00000000000000E+00  -3.19900686923785E-05  -3.01494030731816E-24  -3.19900686923785E-05
      1.41074768741501E-15   1.62733333333333E+00   1.62733333333333E+00   0.00000000000000E+00   0.00000000000000E+00
      3.19900686940334E-05   3.68047367061790E-20   3.19900686940335E-05   3.01702768253692E-15   3.00000000000000E+00
      3.00000000000000E+00   0.00000000000000E+00   0.00000000000000E+00   0.00000000000000E+00   0.00000000000000E+00
      0.00000000000000E+00   2.22942791718209E-15
      5.67444444444445E-01
      0.00000000000000E+00   0.00000000000000E+00   0.00000000000000E+00   0.00000000000000E+00  -4.28778811904985E-18
     -1.67688388769797E-15  -1.68117167581702E-15  -6.71430252271402E-15   0.00000000000000E+00   0.00000000000000E+00
      0.00000000000000E+00   0.00000000000000E+00  -3.20624787744262E-05  -3.02067557628375E-24  -3.20624787744262E-05
      1.41074656941756E-15   1.70233333333333E+00   1.70233333333333E+00   0.00000000000000E+00   0.00000000000000E+00
      3.20624787761073E-05   3.68124446131054E-20   3.20624787761073E-05   3.08214240135754E-15   3.00000000000000E+00
      3.00000000000000E+00   0.00000000000000E+00   0.00000000000000E+00   0.00000000000000E+00   0.00000000000000E+00
      0.00000000000000E+00   2.22141355193891E-15
      5.92444444444445E-01
      0.00000000000000E+00   0.00000000000000E+00   0.00000000000000E+00   0.00000000000000E+00  -1.48906611728646E-19
     -1.69390008158439E-15  -1.69404898819612E-15  -6.77057350442037E-15   0.00000000000000E+00   0.00000000000000E+00
      0.00000000000000E+00   0.00000000000000E+00  -3.21328438012633E-05  -3.03110268924745E-24  -3.21328438012633E-05
      1.41074548228109E-15   1.77733333333333E+00   1.77733333333333E+00   0.00000000000000E+00   0.00000000000000E+00
      3.21328438029574E-05   3.68198262257287E-20   3.21328438029574E-05   3.14631934940994E-15   3.00000000000000E+00
      3.00000000000000E+00   0.00000000000000E+00   0.00000000000000E+00   0.00000000000000E+00   0.00000000000000E+00
      0.00000000000000E+00   2.21350867272934E-15
      6.17444444444445E-01
      0.00000000000000E+00   0.00000000000000E+00   0.00000000000000E+00   0.00000000000000E+00   1.90127036029169E-19
     -1.70594847044567E-15  -1.70575834340964E-15  -6.82623106644918E-15   0.00000000000000E+00   0.00000000000000E+00
      0.00000000000000E+00   0.00000000000000E+00  -3.22011547230719E-05  -3.03105632390528E-24  -3.22011547230719E-05
      1.41074442620600E-15   1.85233333333333E+00   1.85233333333333E+00   0.00000000000000E+00   0.00000000000000E+00
      3.22011547247776E-05   3.68268829145765E-20   3.22011547247776E-05   3.20976011627126E-15   3.00000000000000E+00
      3.00000000000000E+00   0.00000000000000E+00   0.00000000000000E+00   0.00000000000000E+00   0.00000000000000E+00
      0.00000000000000E+00   2.20572652397193E-15
      6.42444444444445E-01
      0.00000000000000E+00   0.00000000000000E+00   0.00000000000000E+00   0.00000000000000E+00   3.26047793466153E-18
     -1.71473522797779E-15  -1.71147475004313E-15  -6.88142095961047E-15   0.00000000000000E+00   0.00000000000000E+00
      0.00000000000000E+00   0.00000000000000E+00  -3.22674937897259E-05  -3.03994284126686E-24  -3.22674937897259E-05
      1.41074339997866E-15   1.92733333333333E+00   1.92733333333333E+00   0.00000000000000E+00   0.00000000000000E+00
      3.22674937914373E-05   3.68336275145161E-20   3.22674937914373E-05   3.27260873370303E-15   3.00000000000000E+00
      3.00000000000000E+00   0.00000000000000E+00   0.00000000000000E+00   0.00000000000000E+00   0.00000000000000E+00
      0.00000000000000E+00   2.19806882592880E-15
      6.67444444444445E-01
      0.00000000000000E+00   0.00000000000000E+00   0.00000000000000E+00   0.00000000000000E+00   2.96987417096041E-19
     -1.72231223794200E-15  -1.72201525052491E-15  -6.93624365403599E-15   0.00000000000000E+00   0.00000000000000E+00
      0.00000000000000E+00   0.00000000000000E+00  -3.23321073708390E-05  -3.04788779449029E-24  -3.23321073708390E-05
      1.41074239983975E-15   2.00233333333333E+00   2.00233333333333E+00   0.00000000000000E+00   0.00000000000000E+00
      3.23321073725610E-05   3.68400752766206E-20   3.23321073725610E-05   3.33498525782061E-15   3.00000000000000E+00
      3.00000000000000E+00   0.00000000000000E+00   0.00000000000000E+00   0.00000000000000E+00   0.00000000000000E+00
      0.00000000000000E+00   2.19051599637563E-15
      6.92444444444445E-01
      0.00000000000000E+00   0.00000000000000E+00   0.00000000000000E+00   0.00000000000000E+00   4.69450292330003E-19
     -1.73057875494569E-15  -1.73010930465336E-15  -6.99077694751613E-15   0.00000000000000E+00   0.00000000000000E+00
      0.00000000000000E+00   0.00000000000000E+00  -3.23953384366289E-05  -3.05155162422820E-24  -3.23953384366289E-05
      1.41074142052258E-15   2.07733333333333E+00   2.07733333333333E+00   0.00000000000000E+00   0.00000000000000E+00
      3.23953384383589E-05   3.68462394592059E-20   3.23953384383590E-05   3.39700137355047E-15   3.00000000000000E+00
      3.00000000000000E+00   0.00000000000000E+00   0.00000000000000E+00   0.00000000000000E+00   0.00000000000000E+00
      0.00000000000000E+00   2.18303415344307E-15
      7.17444444444445E-01
      0.00000000000000E+00   0.00000000000000E+00   0.00000000000000E+00   0.00000000000000E+00  -3.07344379058397E-19
     -1.74079383464221E-15  -1.74110117902127E-15  -7.04507842845979E-15   0.00000000000000E+00   0.00000000000000E+00
      0.00000000000000E+00   0.00000000000000E+00  -3.24574904554593E-05  -3.05416123891289E-24  -3.24574904554593E-05
      1.41074045735995E-15   2.15233333333333E+00   2.15233333333333E+00   0.00000000000000E+00   0.00000000000000E+00
      3.24574904572004E-05   3.68521365137465E-20   3.24574904572004E-05   3.45874642350987E-15   3.00000000000000E+00
      3.00000000000000E+00   0.00000000000000E+00   0.00000000000000E+00   0.00000000000000E+00   0.00000000000000E+00
      0.00000000000000E+00   2.17559154758999E-15
      7.42444444444445E-01
      0.00000000000000E+00   0.00000000000000E+00   0.00000000000000E+00   0.00000000000000E+00  -2.54936359333192E-18
     -1.75307725951844E-15  -1.75562662311177E-15  -7.09918266869446E-15   0.00000000000000E+00   0.00000000000000E+00
      0.00000000000000E+00   0.00000000000000E+00  -3.25187558007682E-05  -3.06193242245431E-24  -3.25187558007682E-05
      1.41073950739626E-15   2.22733333333333E+00   2.22733333333333E+00   0.00000000000000E+00   0.00000000000000E+00
      3.25187558025238E-05   3.68577885073838E-20   3.25187558025238E-05   3.52027502843186E-15   3.00000000000000E+00
      3.00000000000000E+00   0.00000000000000E+00   0.00000000000000E+00   0.00000000000000E+00   0.00000000000000E+00
      0.00000000000000E+00   2.16816813286635E-15
      7.67444444444445E-01
      0.00000000000000E+00   0.00000000000000E+00   0.00000000000000E+00   0.00000000000000E+00   1.76617356549849E-18
     -1.76677440897499E-15  -1.76500823540949E-15  -7.15310596582809E-15   0.00000000000000E+00   0.00000000000000E+00
      0.00000000000000E+00   0.00000000000000E+00  -3.25792387386520E-05  -3.07271599038082E-24  -3.25792387386520E-05
      1.41073856903615E-15   2.30233333333333E+00   2.30233333333333E+00   0.00000000000000E+00   0.00000000000000E+00
      3.25792387404169E-05   3.68632191904924E-20   3.25792387404169E-05   3.58161373089048E-15   3.00000000000000E+00
      3.00000000000000E+00   0.00000000000000E+00   0.00000000000000E+00   0.00000000000000E+00   0.00000000000000E+00
      0.00000000000000E+00   2.16075366590146E-15
      7.92444444444445E-01
      0.00000000000000E+00   0.00000000000000E+00   0.00000000000000E+00   0.00000000000000E+00  -5.51641616609051E-18
     -1.78097343237746E-15  -1.78648984854355E-15  -7.20685316233886E-15   0.00000000000000E+00   0.00000000000000E+00
      0.00000000000000E+00   0.00000000000000E+00  -3.26389955647081E-05  -3.07770276202584E-24  -3.26389955647081E-05
      1.41073764142526E-15   2.37733333333333E+00   2.37733333333333E+00   0.00000000000000E+00   0.00000000000000E+00
      3.26389955664946E-05   3.68684491605775E-20   3.26389955664946E-05   3.64277207874514E-15   3.00000000000000E+00
      3.00000000000000E+00   0.00000000000000E+00   0.00000000000000E+00   0.00000000000000E+00   0.00000000000000E+00
      0.00000000000000E+00   2.15334344216845E-15
      8.17444444444445E-01
      0.00000000000000E+00   0.00000000000000E+00   0.00000000000000E+00   0.00000000000000E+00   2.71060725537100E-18
     -1.79466814139844E-15  -1.79195753414307E-15  -7.26042319460159E-15   0.00000000000000E+00   0.00000000000000E+00
      0.00000000000000E+00   0.00000000000000E+00  -3.26980610350525E-05  -3.08334045932154E-24  -3.26980610350525E-05
      1.41073672404159E-15   2.45233333333333E+00   2.45233333333333E+00   0.00000000000000E+00   0.00000000000000E+00
      3.26980610368444E-05   3.68734390852765E-20   3.26980610368444E-05   3.70375105989683E-15   3.00000000000000E+00
      3.00000000000000E+00   0.00000000000000E+00   0.00000000000000E+00   0.00000000000000E+00   0.00000000000000E+00
      0.00000000000000E+00   2.14593541066317E-15
      8.42444444444445E-01
      0.00000000000000E+00   0.00000000000000E+00   0.00000000000000E+00   0.00000000000000E+00  -2.73787565608808E-18
     -1.80829352640052E-15  -1.81103140205661E-15  -7.31381303540487E-15   0.00000000000000E+00   0.00000000000000E+00
      0.00000000000000E+00   0.00000000000000E+00  -3.27564617149284E-05  -3.08644846820700E-24  -3.27564617149284E-05
      1.41073581648955E-15   2.52733333333333E+00   2.52733333333333E+00   0.00000000000000E+00   0.00000000000000E+00
      3.27564617167394E-05   3.68783400650568E-20   3.27564617167394E-05   3.76454853943535E-15   3.00000000000000E+00
      3.00000000000000E+00   0.00000000000000E+00   0.00000000000000E+00   0.00000000000000E+00   0.00000000000000E+00
      0.00000000000000E+00   2.13852867947998E-15
      8.67444444444445E-01
      0.00000000000000E+00   0.00000000000000E+00   0.00000000000000E+00   0.00000000000000E+00   8.19512580593056E-19