DF-ISE text

Info {
  version   = 1.0
  type      = xyplot
  datasets  = [
    "time"
    "substrate OuterVoltage" "substrate InnerVoltage" "substrate QuasiFermiPotential" "substrate DisplacementCurrent" "substrate eCurrent"
    "substrate hCurrent" "substrate TotalCurrent" "substrate Charge" "source OuterVoltage" "source InnerVoltage"
    "source QuasiFermiPotential" "source DisplacementCurrent" "source eCurrent" "source hCurrent" "source TotalCurrent"
    "source Charge" "drain OuterVoltage" "drain InnerVoltage" "drain QuasiFermiPotential" "drain DisplacementCurrent"
    "drain eCurrent" "drain hCurrent" "drain TotalCurrent" "drain Charge" "gate OuterVoltage"
    "gate InnerVoltage" "gate QuasiFermiPotential" "gate DisplacementCurrent" "gate eCurrent" "gate hCurrent"
    "gate TotalCurrent" "gate Charge" ]
  functions = [
    Time
    OuterVoltage InnerVoltage QuasiFermiPotential DisplacementCurrent eCurrent
    hCurrent TotalCurrent Charge OuterVoltage InnerVoltage
    QuasiFermiPotential DisplacementCurrent eCurrent hCurrent TotalCurrent
    Charge OuterVoltage InnerVoltage QuasiFermiPotential DisplacementCurrent
    eCurrent hCurrent TotalCurrent Charge OuterVoltage
    InnerVoltage QuasiFermiPotential DisplacementCurrent eCurrent hCurrent
    TotalCurrent Charge ]
}

Data {
      0.00000000000000E+00
      0.00000000000000E+00   0.00000000000000E+00   0.00000000000000E+00   0.00000000000000E+00   8.80633159754316E-32
      3.06904017873568E-28   3.06992081189543E-28  -9.22009042209081E-15   0.00000000000000E+00   0.00000000000000E+00
      0.00000000000000E+00   0.00000000000000E+00  -1.82991312173938E-31  -2.43263760963090E-28  -2.43446752275264E-28
      4.36494907751819E-15   0.00000000000000E+00   0.00000000000000E+00   0.00000000000000E+00   0.00000000000000E+00
     -1.73719989172663E-31  -6.33716089251053E-29  -6.35453289142780E-29   4.36494907751819E-15   0.00000000000000E+00
      0.00000000000000E+00   0.00000000000000E+00   0.00000000000000E+00   0.00000000000000E+00   0.00000000000000E+00
      0.00000000000000E+00   4.90192267054429E-16
      1.00000000000000E-02
      0.00000000000000E+00   0.00000000000000E+00   0.00000000000000E+00   0.00000000000000E+00  -2.06891738866435E-20
     -8.10347935465305E-17  -8.10554827204172E-17  -9.35194111796328E-15   0.00000000000000E+00   0.00000000000000E+00
      0.00000000000000E+00   0.00000000000000E+00  -6.79505915038069E-21   2.50480963176520E-28  -6.79505889989972E-21
      4.36494907751803E-15   3.00000000000000E-02   3.00000000000000E-02   0.00000000000000E+00   0.00000000000000E+00
      8.10735002428210E-17  -1.12224635037701E-20   8.10622777793172E-17   4.49749049384613E-15   0.00000000000000E+00
      0.00000000000000E+00   0.00000000000000E+00   0.00000000000000E+00   0.00000000000000E+00   0.00000000000000E+00
      0.00000000000000E+00   4.89501546599129E-16
      2.36666666666667E-02
      0.00000000000000E+00   0.00000000000000E+00   0.00000000000000E+00   0.00000000000000E+00  -2.77284162188578E-20
     -2.26010650841212E-16  -2.26038379257431E-16  -9.53135008534716E-15   0.00000000000000E+00   0.00000000000000E+00
      0.00000000000000E+00   0.00000000000000E+00  -9.10113965507197E-21   6.87853864121421E-28  -9.10113896721811E-21
      4.36494907751774E-15   7.10000000000000E-02   7.10000000000000E-02   0.00000000000000E+00   0.00000000000000E+00
      2.26034366191260E-16   1.31142051379526E-20   2.26047480396398E-16   4.67784332929801E-15   0.00000000000000E+00
      0.00000000000000E+00   0.00000000000000E+00   0.00000000000000E+00   0.00000000000000E+00   0.00000000000000E+00
      0.00000000000000E+00   4.88557678531410E-16
      4.37111111111111E-02
      0.00000000000000E+00   0.00000000000000E+00   0.00000000000000E+00   0.00000000000000E+00  -2.87648787912366E-20
     -6.73465332438934E-16  -6.73494097317725E-16  -9.79238405512928E-15   0.00000000000000E+00   0.00000000000000E+00
      0.00000000000000E+00   0.00000000000000E+00  -9.42724205228064E-21  -5.86953066473502E-29  -9.42724211097595E-21
      4.36494907751682E-15   1.31133333333333E-01   1.31133333333333E-01   0.00000000000000E+00   0.00000000000000E+00
      6.73479943111064E-16   2.35814487725542E-20   6.73503524559836E-16   4.94026139005030E-15   0.00000000000000E+00
      0.00000000000000E+00   0.00000000000000E+00   0.00000000000000E+00   0.00000000000000E+00   0.00000000000000E+00
      0.00000000000000E+00   4.87173587562162E-16
      6.87111111111111E-02
      0.00000000000000E+00   0.00000000000000E+00   0.00000000000000E+00   0.00000000000000E+00  -2.85602459245268E-20
     -2.24874372115428E-15  -2.24877228140021E-15  -1.01132163210183E-14   0.00000000000000E+00   0.00000000000000E+00
      0.00000000000000E+00   0.00000000000000E+00  -9.35897970795971E-21  -8.42945461753923E-28  -9.35898055090517E-21
      4.36494907751362E-15   2.06133333333333E-01   2.06133333333333E-01   0.00000000000000E+00   0.00000000000000E+00
      2.24875818351403E-15   2.34568667334525E-20   2.24878164038076E-15   5.26281950649717E-15   0.00000000000000E+00
      0.00000000000000E+00   0.00000000000000E+00   0.00000000000000E+00   0.00000000000000E+00   0.00000000000000E+00
      0.00000000000000E+00   4.85447737007539E-16
      9.37111111111111E-02
      0.00000000000000E+00   0.00000000000000E+00   0.00000000000000E+00   0.00000000000000E+00  -2.85623852955774E-20
     -5.82410048940576E-15  -5.82412905179106E-15  -1.04276498269277E-14   0.00000000000000E+00   0.00000000000000E+00
      0.00000000000000E+00   0.00000000000000E+00  -9.35536937735761E-21   9.18157099909014E-30  -9.35536936817604E-21
      4.36494907750635E-15   2.81133333333333E-01   2.81133333333333E-01   0.00000000000000E+00   0.00000000000000E+00
      5.82411478758885E-15   2.36195715797017E-20   5.82413840716043E-15   5.57897837241015E-15   0.00000000000000E+00
      0.00000000000000E+00   0.00000000000000E+00   0.00000000000000E+00   0.00000000000000E+00   0.00000000000000E+00
      0.00000000000000E+00   4.83722377011210E-16
      1.18711111111111E-01
      0.00000000000000E+00   0.00000000000000E+00   0.00000000000000E+00   0.00000000000000E+00  -2.85869988449868E-20
     -1.00467056162137E-14  -1.00467342032125E-14  -1.07366238520972E-14   0.00000000000000E+00   0.00000000000000E+00
      0.00000000000000E+00   0.00000000000000E+00  -9.36048044528463E-21  -6.87336552706629E-28  -9.36048113262118E-21
      4.36494907749776E-15   3.56133333333333E-01   3.56133333333333E-01   0.00000000000000E+00   0.00000000000000E+00
      1.00467197989763E-14   2.37647173774828E-20   1.00467435636937E-14   5.88967724880684E-15   0.00000000000000E+00
      0.00000000000000E+00   0.00000000000000E+00   0.00000000000000E+00   0.00000000000000E+00   0.00000000000000E+00
      0.00000000000000E+00   4.81997525792633E-16
      1.43711111111111E-01
      0.00000000000000E+00   0.00000000000000E+00   0.00000000000000E+00   0.00000000000000E+00  -2.86059510475169E-20
     -1.24456136023458E-14  -1.24456422082969E-14  -1.10422077746538E-14   0.00000000000000E+00   0.00000000000000E+00
      0.00000000000000E+00   0.00000000000000E+00  -9.36469297884444E-21  -2.25396957376080E-29  -9.36469300138413E-21
      4.36494907749288E-15   4.31133333333333E-01   4.31133333333333E-01   0.00000000000000E+00   0.00000000000000E+00
      1.24456276755186E-14   2.38974712636565E-20   1.24456515729899E-14   6.19698549515123E-15   0.00000000000000E+00
      0.00000000000000E+00   0.00000000000000E+00   0.00000000000000E+00   0.00000000000000E+00   0.00000000000000E+00
      0.00000000000000E+00   4.80273202009687E-16
      1.68711111111111E-01
      0.00000000000000E+00   0.00000000000000E+00   0.00000000000000E+00   0.00000000000000E+00  -2.86221349936357E-20
     -1.33682073426607E-14  -1.33682359647957E-14  -1.13452730387019E-14   0.00000000000000E+00   0.00000000000000E+00
      0.00000000000000E+00   0.00000000000000E+00  -9.36865145546645E-21  -7.20909881805745E-28  -9.36865217637634E-21
      4.36494907749101E-15   5.06133333333333E-01   5.06133333333333E-01   0.00000000000000E+00   0.00000000000000E+00
      1.33682213125577E-14   2.40208901834856E-20   1.33682453334479E-14   6.50177453649630E-15   0.00000000000000E+00
      0.00000000000000E+00   0.00000000000000E+00   0.00000000000000E+00   0.00000000000000E+00   0.00000000000000E+00
      0.00000000000000E+00   4.78549424714622E-16
      1.93711111111111E-01
      0.00000000000000E+00   0.00000000000000E+00   0.00000000000000E+00   0.00000000000000E+00  -2.86382874226991E-20
     -1.39837911222245E-14  -1.39838197605119E-14  -1.16454247339159E-14   0.00000000000000E+00   0.00000000000000E+00
      0.00000000000000E+00   0.00000000000000E+00  -9.37313082730110E-21  -4.24982504457483E-28  -9.37313125228361E-21
      4.36494907748977E-15   5.81133333333333E-01   5.81133333333333E-01   0.00000000000000E+00   0.00000000000000E+00
      1.39838049932424E-14   2.41404007137101E-20   1.39838291336432E-14   6.80364944312599E-15   0.00000000000000E+00
      0.00000000000000E+00   0.00000000000000E+00   0.00000000000000E+00   0.00000000000000E+00   0.00000000000000E+00
      0.00000000000000E+00   4.76826213300149E-16
      2.18711111111111E-01
      0.00000000000000E+00   0.00000000000000E+00   0.00000000000000E+00   0.00000000000000E+00  -2.86556323832819E-20
     -1.55275305848808E-14  -1.55275592405132E-14  -1.19416758195684E-14   0.00000000000000E+00   0.00000000000000E+00
      0.00000000000000E+00   0.00000000000000E+00  -9.37845369801035E-21   1.58205741191815E-29  -9.37845368218978E-21
      4.36494907748668E-15   6.56133333333333E-01   6.56133333333333E-01   0.00000000000000E+00   0.00000000000000E+00
      1.55275443581347E-14   2.42608320893495E-20   1.55275686189668E-14   7.10162315465092E-15   0.00000000000000E+00
      0.00000000000000E+00   0.00000000000000E+00   0.00000000000000E+00   0.00000000000000E+00   0.00000000000000E+00
      0.00000000000000E+00   4.75103587430812E-16
      2.43711111111111E-01
      0.00000000000000E+00   0.00000000000000E+00   0.00000000000000E+00   0.00000000000000E+00  -2.86729479781118E-20
     -2.10671503666945E-14  -2.10671790396425E-14  -1.22335176517223E-14   0.00000000000000E+00   0.00000000000000E+00
      0.00000000000000E+00   0.00000000000000E+00  -9.38407173245001E-21  -2.83773854795305E-29  -9.38407176082740E-21
      4.36494907747560E-15   7.31133333333333E-01   7.31133333333333E-01   0.00000000000000E+00   0.00000000000000E+00
      2.10671640370577E-14   2.43866565415696E-20   2.10671884237142E-14   7.39518700728900E-15   0.00000000000000E+00
      0.00000000000000E+00   0.00000000000000E+00   0.00000000000000E+00   0.00000000000000E+00   0.00000000000000E+00
      0.00000000000000E+00   4.73381566957728E-16
      2.68711111111111E-01
      0.00000000000000E+00   0.00000000000000E+00   0.00000000000000E+00   0.00000000000000E+00  -2.86882653904418E-20
     -3.86048062879247E-14  -3.86048349761900E-14  -1.25211217805063E-14   0.00000000000000E+00   0.00000000000000E+00
      0.00000000000000E+00   0.00000000000000E+00  -9.38914454471236E-21  -2.51063337543980E-28  -9.38914479577570E-21
      4.36494907744054E-15   8.06133333333333E-01   8.06133333333333E-01   0.00000000000000E+00   0.00000000000000E+00
      3.86048198427727E-14   2.45225621204637E-20   3.86048443653348E-14   7.68451253124960E-15   0.00000000000000E+00
      0.00000000000000E+00   0.00000000000000E+00   0.00000000000000E+00   0.00000000000000E+00   0.00000000000000E+00
      0.00000000000000E+00   4.71660171816184E-16
      2.93711111111111E-01
      0.00000000000000E+00   0.00000000000000E+00   0.00000000000000E+00   0.00000000000000E+00  -2.87011252314654E-20
     -7.43351405519162E-14  -7.43351692530414E-14  -1.28037846265106E-14   0.00000000000000E+00   0.00000000000000E+00
      0.00000000000000E+00   0.00000000000000E+00  -9.39348313150587E-21   2.61847609344686E-28  -9.39348286965826E-21
      4.36494907736909E-15   8.81133333333333E-01   8.81133333333333E-01   0.00000000000000E+00   0.00000000000000E+00
      7.43351539736746E-14   2.46728496628466E-20   7.43351786465243E-14   7.96889612723081E-15   0.00000000000000E+00
      0.00000000000000E+00   0.00000000000000E+00   0.00000000000000E+00   0.00000000000000E+00   0.00000000000000E+00
      0.00000000000000E+00   4.69939421910674E-16
      3.18711111111111E-01
      0.00000000000000E+00   0.00000000000000E+00   0.00000000000000E+00   0.00000000000000E+00  -2.87120156615955E-20
     -1.08400221931239E-13  -1.08400250643255E-13  -1.30794608645351E-14   0.00000000000000E+00   0.00000000000000E+00
      0.00000000000000E+00   0.00000000000000E+00  -9.39720113985341E-21   1.61518302802024E-28  -9.39720097833511E-21
      4.36494907730098E-15   9.56133333333333E-01   9.56133333333333E-01   0.00000000000000E+00   0.00000000000000E+00
      1.08400235203026E-13   2.48374294241177E-20   1.08400260040456E-13   8.24629245024313E-15   0.00000000000000E+00
      0.00000000000000E+00   0.00000000000000E+00   0.00000000000000E+00   0.00000000000000E+00   0.00000000000000E+00
      0.00000000000000E+00   4.68219336990956E-16
      3.43711111111111E-01
      0.00000000000000E+00   0.00000000000000E+00   0.00000000000000E+00   0.00000000000000E+00  -2.87212976301847E-20
     -1.24065440351753E-13  -1.24065469073051E-13  -1.33462512469408E-14   0.00000000000000E+00   0.00000000000000E+00
      0.00000000000000E+00   0.00000000000000E+00  -9.40037267540259E-21   1.15428787979798E-28  -9.40037255997381E-21
      4.36494907726966E-15   1.03113333333333E+00   1.03113333333333E+00   0.00000000000000E+00   0.00000000000000E+00
      1.24065453467041E-13   2.50063820119737E-20   1.24065478473423E-13   8.51480223318346E-15   0.00000000000000E+00
      0.00000000000000E+00   0.00000000000000E+00   0.00000000000000E+00   0.00000000000000E+00   0.00000000000000E+00
      0.00000000000000E+00   4.66499936487726E-16
      3.68711111111111E-01
      0.00000000000000E+00   0.00000000000000E+00   0.00000000000000E+00   0.00000000000000E+00  -2.87291784808752E-20
     -1.29327650715188E-13  -1.29327679444367E-13  -1.36054408293972E-14   0.00000000000000E+00   0.00000000000000E+00
      0.00000000000000E+00   0.00000000000000E+00  -9.40305515677420E-21  -2.01363343339946E-28  -9.40305535813754E-21
      4.36494907725912E-15   1.10613333333333E+00   1.10613333333333E+00   0.00000000000000E+00   0.00000000000000E+00
      1.29327663686819E-13   2.51606025855003E-20   1.29327688847422E-13   8.77571051280026E-15   0.00000000000000E+00
      0.00000000000000E+00   0.00000000000000E+00   0.00000000000000E+00   0.00000000000000E+00   0.00000000000000E+00
      0.00000000000000E+00   4.64781239337793E-16
      3.93711111111111E-01
      0.00000000000000E+00   0.00000000000000E+00   0.00000000000000E+00   0.00000000000000E+00  -2.87356372217345E-20
     -1.32717161331270E-13  -1.32717190066907E-13  -1.38606691525223E-14   0.00000000000000E+00   0.00000000000000E+00
      0.00000000000000E+00   0.00000000000000E+00  -9.40522812899895E-21  -3.78251670377915E-28  -9.40522850725062E-21
      4.36494907725229E-15   1.18113333333333E+00   1.18113333333333E+00   0.00000000000000E+00   0.00000000000000E+00
      1.32717174182813E-13   2.52893222543687E-20   1.32717199472136E-13   9.03265681145048E-15   0.00000000000000E+00
      0.00000000000000E+00   0.00000000000000E+00   0.00000000000000E+00   0.00000000000000E+00   0.00000000000000E+00
      0.00000000000000E+00   4.63063263819524E-16
      4.18711111111111E-01
      0.00000000000000E+00   0.00000000000000E+00   0.00000000000000E+00   0.00000000000000E+00  -2.87475539265037E-20
     -1.39934495163962E-13  -1.39934523911516E-13  -1.41142656075805E-14   0.00000000000000E+00   0.00000000000000E+00
      0.00000000000000E+00   0.00000000000000E+00  -9.40660498204851E-21  -5.58974260515155E-29  -9.40660503794594E-21
      4.36494907723769E-15   1.25613333333333E+00   1.25613333333333E+00   0.00000000000000E+00   0.00000000000000E+00
      1.39934508009038E-13   2.53090828260792E-20   1.39934533318121E-13   9.28797050297011E-15   0.00000000000000E+00
      0.00000000000000E+00   0.00000000000000E+00   0.00000000000000E+00   0.00000000000000E+00   0.00000000000000E+00
      0.00000000000000E+00   4.61346027372741E-16
      4.43711111111111E-01
      0.00000000000000E+00   0.00000000000000E+00   0.00000000000000E+00   0.00000000000000E+00  -2.89932722435486E-20
     -1.52096177363497E-13  -1.52096206356769E-13  -1.43669906824943E-14   0.00000000000000E+00   0.00000000000000E+00
      0.00000000000000E+00   0.00000000000000E+00  -9.40664773419209E-21   1.85455193732893E-28  -9.40664754873690E-21
      4.36494907721309E-15   1.33113333333333E+00   1.33113333333333E+00   0.00000000000000E+00   0.00000000000000E+00
      1.52096190279940E-13   2.54834769637985E-20   1.52096215763417E-13   9.54241205886323E-15   0.00000000000000E+00
      0.00000000000000E+00   0.00000000000000E+00   0.00000000000000E+00   0.00000000000000E+00   0.00000000000000E+00
      0.00000000000000E+00   4.59629546417920E-16
      4.68711111111111E-01
      0.00000000000000E+00   0.00000000000000E+00   0.00000000000000E+00   0.00000000000000E+00  -2.90717820591118E-20
     -1.62095772759169E-13  -1.62095801830951E-13  -1.46189628261807E-14   0.00000000000000E+00   0.00000000000000E+00
      0.00000000000000E+00   0.00000000000000E+00  -9.40550538008295E-21  -7.94017691411712E-28  -9.40550617410064E-21
      4.36494907719289E-15   1.40613333333333E+00   1.40613333333333E+00   0.00000000000000E+00   0.00000000000000E+00
      1.62095785671825E-13   2.55646319538305E-20   1.62095811236457E-13   9.79609991280419E-15   0.00000000000000E+00
      0.00000000000000E+00   0.00000000000000E+00   0.00000000000000E+00   0.00000000000000E+00   0.00000000000000E+00
      0.00000000000000E+00   4.57913836183665E-16
      4.93711111111111E-01
      0.00000000000000E+00   0.00000000000000E+00   0.00000000000000E+00   0.00000000000000E+00  -2.87562470171767E-20
     -1.72798890122448E-13  -1.72798918878695E-13  -1.48700822313849E-14   0.00000000000000E+00   0.00000000000000E+00
      0.00000000000000E+00   0.00000000000000E+00  -9.40402922397357E-21  -1.89163217538008E-28  -9.40402941313679E-21
      4.36494907717139E-15   1.48113333333333E+00   1.48113333333333E+00   0.00000000000000E+00   0.00000000000000E+00
      1.72798902645143E-13   2.56375804428811E-20   1.72798928282724E-13   1.00489342436736E-14   0.00000000000000E+00
      0.00000000000000E+00   0.00000000000000E+00   0.00000000000000E+00   0.00000000000000E+00   0.00000000000000E+00
      0.00000000000000E+00   4.56198910539956E-16
      5.18711111111111E-01
      0.00000000000000E+00   0.00000000000000E+00   0.00000000000000E+00   0.00000000000000E+00  -2.87334700221521E-20
     -1.99786252555500E-13  -1.99786281288970E-13  -1.51201381370566E-14   0.00000000000000E+00   0.00000000000000E+00
      0.00000000000000E+00   0.00000000000000E+00  -9.40270956669298E-21   1.04587499892999E-28  -9.40270946210548E-21
      4.36494907711731E-15   1.55613333333333E+00   1.55613333333333E+00   0.00000000000000E+00   0.00000000000000E+00
      1.99786264985375E-13   2.57063046295671E-20   1.99786290691680E-13   1.03007042780755E-14   0.00000000000000E+00
      0.00000000000000E+00   0.00000000000000E+00   0.00000000000000E+00   0.00000000000000E+00   0.00000000000000E+00
      0.00000000000000E+00   4.54484781863742E-16
      5.43711111111111E-01
      0.00000000000000E+00   0.00000000000000E+00   0.00000000000000E+00   0.00000000000000E+00  -2.87313155585009E-20
     -2.57329859162788E-13  -2.57329887894103E-13  -1.53688044132580E-14   0.00000000000000E+00   0.00000000000000E+00
      0.00000000000000E+00   0.00000000000000E+00  -9.40167134851436E-21   1.84071350829462E-28  -9.40167116444301E-21
      4.36494907700201E-15   1.63113333333333E+00   1.63113333333333E+00   0.00000000000000E+00   0.00000000000000E+00
      2.57329871710027E-13   2.55857484334561E-20   2.57329897295775E-13   1.05510838753091E-14   0.00000000000000E+00
      0.00000000000000E+00   0.00000000000000E+00   0.00000000000000E+00   0.00000000000000E+00   0.00000000000000E+00
      0.00000000000000E+00   4.52771460946872E-16
      5.68711111111111E-01
      0.00000000000000E+00   0.00000000000000E+00   0.00000000000000E+00   0.00000000000000E+00  -2.87296110278923E-20
     -3.17425577044093E-13  -3.17425605773704E-13  -1.56155796490409E-14   0.00000000000000E+00   0.00000000000000E+00
      0.00000000000000E+00   0.00000000000000E+00  -9.40087592858807E-21  -1.23973899976746E-28  -9.40087605256197E-21
      4.36494907688160E-15   1.70613333333333E+00   1.70613333333333E+00   0.00000000000000E+00   0.00000000000000E+00
      3.17425590951241E-13   2.42233400520324E-20   3.17425615174581E-13   1.07995716151993E-14   0.00000000000000E+00
      0.00000000000000E+00   0.00000000000000E+00   0.00000000000000E+00   0.00000000000000E+00   0.00000000000000E+00
      0.00000000000000E+00   4.51058956960030E-16
      5.93711111111111E-01
      0.00000000000000E+00   0.00000000000000E+00   0.00000000000000E+00   0.00000000000000E+00  -2.87288231335474E-20
     -3.46892618039943E-13  -3.46892646768766E-13  -1.58596658089325E-14   0.00000000000000E+00   0.00000000000000E+00
      0.00000000000000E+00   0.00000000000000E+00  -9.40025535538938E-21  -3.12229133012502E-28  -9.40025566761851E-21
      4.36494907682256E-15   1.78113333333333E+00   1.78113333333333E+00   0.00000000000000E+00   0.00000000000000E+00
      3.46892630251041E-13   2.59179808534931E-20   3.46892656169022E-13   1.10453694546771E-14   0.00000000000000E+00
      0.00000000000000E+00   0.00000000000000E+00   0.00000000000000E+00   0.00000000000000E+00   0.00000000000000E+00
      0.00000000000000E+00   4.49347277432832E-16
      6.18711111111111E-01
      0.00000000000000E+00   0.00000000000000E+00   0.00000000000000E+00   0.00000000000000E+00  -2.87282038131950E-20
     -3.56179897078150E-13  -3.56179925806354E-13  -1.60997658797428E-14   0.00000000000000E+00   0.00000000000000E+00
      0.00000000000000E+00   0.00000000000000E+00  -9.39979319467145E-21  -3.91908136044247E-28  -9.39979358657959E-21
      4.36494907680395E-15   1.85613333333333E+00   1.85613333333333E+00   0.00000000000000E+00   0.00000000000000E+00
      3.56179909216717E-13   2.59894312221896E-20   3.56179935206149E-13   1.12871803746542E-14   0.00000000000000E+00
      0.00000000000000E+00   0.00000000000000E+00   0.00000000000000E+00   0.00000000000000E+00   0.00000000000000E+00
      0.00000000000000E+00   4.47636428284641E-16
      6.43711111111111E-01
      0.00000000000000E+00   0.00000000000000E+00   0.00000000000000E+00   0.00000000000000E+00  -2.87279338500447E-20
     -3.58670890577216E-13  -3.58670919305150E-13  -1.63338985399104E-14   0.00000000000000E+00   0.00000000000000E+00
      0.00000000000000E+00   0.00000000000000E+00  -9.39947690698227E-21   1.56178417571389E-28  -9.39947675080385E-21
      4.36494907679896E-15   1.93113333333333E+00   1.93113333333333E+00   0.00000000000000E+00   0.00000000000000E+00
      3.58670902639326E-13   2.60652997895427E-20   3.58670928704626E-13   1.15230230491525E-14   0.00000000000000E+00
      0.00000000000000E+00   0.00000000000000E+00   0.00000000000000E+00   0.00000000000000E+00   0.00000000000000E+00
      0.00000000000000E+00   4.45926413958988E-16
      6.68711111111111E-01
      0.00000000000000E+00   0.00000000000000E+00   0.00000000000000E+00   0.00000000000000E+00  -2.87279406259864E-20
     -3.59310761964349E-13  -3.59310790692289E-13  -1.65597462094177E-14   0.00000000000000E+00   0.00000000000000E+00
      0.00000000000000E+00   0.00000000000000E+00  -9.39928264303447E-21  -3.94609861864777E-28  -9.39928303764434E-21
      4.36494907679768E-15   2.00613333333333E+00   2.00613333333333E+00   0.00000000000000E+00   0.00000000000000E+00
      3.59310773948727E-13   2.61428457020562E-20   3.59310800091573E-13   1.17505798950170E-14   0.00000000000000E+00
      0.00000000000000E+00   0.00000000000000E+00   0.00000000000000E+00   0.00000000000000E+00   0.00000000000000E+00
      0.00000000000000E+00   4.44217237602997E-16
      6.93711111111111E-01
      0.00000000000000E+00   0.00000000000000E+00   0.00000000000000E+00   0.00000000000000E+00  -2.87281514683907E-20
     -3.59478856494872E-13  -3.59478885223024E-13  -1.67756595551667E-14   0.00000000000000E+00   0.00000000000000E+00
      0.00000000000000E+00   0.00000000000000E+00  -9.39918189185371E-21   5.51580945212884E-29  -9.39918183669561E-21
      4.36494907679735E-15   2.08113333333333E+00   2.08113333333333E+00   0.00000000000000E+00   0.00000000000000E+00
      3.59478868406212E-13   2.62159940119283E-20   3.59478894622206E-13   1.19682015770731E-14   0.00000000000000E+00
      0.00000000000000E+00   0.00000000000000E+00   0.00000000000000E+00   0.00000000000000E+00   0.00000000000000E+00
      0.00000000000000E+00   4.42508901296331E-16
      7.18711111111111E-01
      0.00000000000000E+00   0.00000000000000E+00   0.00000000000000E+00   0.00000000000000E+00  -2.87285099295380E-20
     -3.59543289429783E-13  -3.59543318158293E-13  -1.69812790871963E-14   0.00000000000000E+00   0.00000000000000E+00
      0.00000000000000E+00   0.00000000000000E+00  -9.39915493797854E-21   2.41404418053193E-28  -9.39915469657412E-21
      4.36494907679722E-15   2.15613333333333E+00   2.15613333333333E+00   0.00000000000000E+00   0.00000000000000E+00
      3.59543301275827E-13   2.62816206632201E-20   3.59543327557448E-13   1.21755286040700E-14   0.00000000000000E+00
      0.00000000000000E+00   0.00000000000000E+00   0.00000000000000E+00   0.00000000000000E+00   0.00000000000000E+00
      0.00000000000000E+00   4.40801406329057E-16
      7.43711111111111E-01
      0.00000000000000E+00   0.00000000000000E+00   0.00000000000000E+00   0.00000000000000E+00  -2.87290276153610E-20
     -3.59644874632861E-13  -3.59644903361888E-13  -1.71781367700017E-14   0.00000000000000E+00   0.00000000000000E+00
      0.00000000000000E+00   0.00000000000000E+00  -9.39919862476363E-21  -1.29106999001965E-28  -9.39919875387063E-21
      4.36494907679702E-15   2.23113333333333E+00   2.23113333333333E+00   0.00000000000000E+00   0.00000000000000E+00
      3.59644886420982E-13   2.63401047557721E-20   3.59644912761087E-13   1.23740929396889E-14   0.00000000000000E+00
      0.00000000000000E+00   0.00000000000000E+00   0.00000000000000E+00   0.00000000000000E+00   0.00000000000000E+00
      0.00000000000000E+00   4.39094753515801E-16
      7.68711111111111E-01
      0.00000000000000E+00   0.00000000000000E+00   0.00000000000000E+00   0.00000000000000E+00  -2.87296930843416E-20
     -3.60011609819041E-13  -3.60011638548734E-13  -1.73692208389916E-14   0.00000000000000E+00   0.00000000000000E+00
      0.00000000000000E+00   0.00000000000000E+00  -9.39931200869022E-21  -6.55684772902003E-28  -9.39931266437499E-21
      4.36494907679629E-15   2.30613333333333E+00   2.30613333333333E+00   0.00000000000000E+00   0.00000000000000E+00
      3.60011621557679E-13   2.63903679516626E-20   3.60011647948047E-13   1.25668828186655E-14   0.00000000000000E+00
      0.00000000000000E+00   0.00000000000000E+00   0.00000000000000E+00   0.00000000000000E+00   0.00000000000000E+00
      0.00000000000000E+00   4.37388943529802E-16
      7.93711111111111E-01
      0.00000000000000E+00   0.00000000000000E+00   0.00000000000000E+00   0.00000000000000E+00  -2.87305014581489E-20
     -3.61468036105675E-13  -3.61468064836176E-13  -1.75575361007184E-14   0.00000000000000E+00   0.00000000000000E+00
      0.00000000000000E+00   0.00000000000000E+00  -9.39949284317760E-21   5.17260179713734E-28  -9.39949232591742E-21
      4.36494907679336E-15   2.38113333333333E+00   2.38113333333333E+00   0.00000000000000E+00   0.00000000000000E+00
      3.61468047803356E-13   2.64323131900970E-20   3.61468074235669E-13   1.27569030466836E-14   0.00000000000000E+00
      0.00000000000000E+00   0.00000000000000E+00   0.00000000000000E+00   0.00000000000000E+00   0.00000000000000E+00
      0.00000000000000E+00   4.35683977241394E-16
      8.18711111111112E-01
      0.00000000000000E+00   0.00000000000000E+00   0.00000000000000E+00   0.00000000000000E+00  -2.87314498665034E-20
     -3.67094116201072E-13  -3.67094144932522E-13  -1.77448138522915E-14   0.00000000000000E+00   0.00000000000000E+00
      0.00000000000000E+00   0.00000000000000E+00  -9.39974196500449E-21  -1.03020381359594E-28  -9.39974206802487E-21
      4.36494907678204E-15   2.45613333333333E+00   2.45613333333333E+00   0.00000000000000E+00   0.00000000000000E+00
      3.67094127864868E-13   2.64673963494759E-20   3.67094154332264E-13   1.29458849194616E-14   0.00000000000000E+00
      0.00000000000000E+00   0.00000000000000E+00   0.00000000000000E+00   0.00000000000000E+00   0.00000000000000E+00
      0.00000000000000E+00   4.33979856047860E-16
      8.43711111111112E-01
      0.00000000000000E+00   0.00000000000000E+00   0.00000000000000E+00   0.00000000000000E+00  -2.87325318724951E-20
     -3.86123967648882E-13  -3.86123996381414E-13  -1.79317217142363E-14   0.00000000000000E+00   0.00000000000000E+00
      0.00000000000000E+00   0.00000000000000E+00  -9.40006822518919E-21  -1.23069115095749E-28  -9.40006834825831E-21
      4.36494907674372E-15   2.53113333333333E+00   2.53113333333333E+00   0.00000000000000E+00   0.00000000000000E+00
      3.86123979284452E-13   2.64970298555704E-20   3.86124005781482E-13   1.31344960553165E-14   0.00000000000000E+00
      0.00000000000000E+00   0.00000000000000E+00   0.00000000000000E+00   0.00000000000000E+00   0.00000000000000E+00
      0.00000000000000E+00   4.32276582176118E-16
      8.68711111111112E-01
      0.00000000000000E+00   0.00000000000000E+00   0.00000000000000E+00   0.00000000000000E+00  -2.87337422144623E-20