DF-ISE text

Info {
  version   = 1.0
  type      = xyplot
  datasets  = [
    "time"
    "substrate OuterVoltage" "substrate InnerVoltage" "substrate QuasiFermiPotential" "substrate DisplacementCurrent" "substrate eCurrent"
    "substrate hCurrent" "substrate TotalCurrent" "substrate Charge" "source OuterVoltage" "source InnerVoltage"
    "source QuasiFermiPotential" "source DisplacementCurrent" "source eCurrent" "source hCurrent" "source TotalCurrent"
    "source Charge" "drain OuterVoltage" "drain InnerVoltage" "drain QuasiFermiPotential" "drain DisplacementCurrent"
    "drain eCurrent" "drain hCurrent" "drain TotalCurrent" "drain Charge" "gate OuterVoltage"
    "gate InnerVoltage" "gate QuasiFermiPotential" "gate DisplacementCurrent" "gate eCurrent" "gate hCurrent"
    "gate TotalCurrent" "gate Charge" ]
  functions = [
    Time
    OuterVoltage InnerVoltage QuasiFermiPotential DisplacementCurrent eCurrent
    hCurrent TotalCurrent Charge OuterVoltage InnerVoltage
    QuasiFermiPotential DisplacementCurrent eCurrent hCurrent TotalCurrent
    Charge OuterVoltage InnerVoltage QuasiFermiPotential DisplacementCurrent
    eCurrent hCurrent TotalCurrent Charge OuterVoltage
    InnerVoltage QuasiFermiPotential DisplacementCurrent eCurrent hCurrent
    TotalCurrent Charge ]
}

Data {
      0.00000000000000E+00
      0.00000000000000E+00   0.00000000000000E+00   0.00000000000000E+00   0.00000000000000E+00   4.53794115497397E-18
      1.12274046392493E-27   4.53794115609671E-18  -5.38258482469780E-15   0.00000000000000E+00   0.00000000000000E+00
      0.00000000000000E+00   0.00000000000000E+00  -2.17381227045707E-18  -2.45128639625105E-27  -2.17381227290835E-18
      1.41223417119204E-15   0.00000000000000E+00   0.00000000000000E+00   0.00000000000000E+00   0.00000000000000E+00
     -2.36412888451689E-18   1.32852460663770E-27  -2.36412888318836E-18   1.41223417119204E-15   3.00000000000000E+00
      3.00000000000000E+00   0.00000000000000E+00   0.00000000000000E+00   0.00000000000000E+00   0.00000000000000E+00
      0.00000000000000E+00   2.55811648231372E-15
      1.00000000000000E-02
      0.00000000000000E+00   0.00000000000000E+00   0.00000000000000E+00   0.00000000000000E+00  -4.61899754831506E-18
     -3.36034506820909E-17  -3.82224482304060E-17  -5.40375528078164E-15   0.00000000000000E+00   0.00000000000000E+00
      0.00000000000000E+00   0.00000000000000E+00  -5.40089851400081E-06  -5.15788149734394E-25  -5.40089851400081E-06
      1.41216832729862E-15   3.00000000000000E-02   3.00000000000000E-02   0.00000000000000E+00   0.00000000000000E+00
      5.40089851403901E-06   2.47812428075622E-20   5.40089851403903E-06   1.44794619898110E-15   3.00000000000000E+00
      3.00000000000000E+00   0.00000000000000E+00   0.00000000000000E+00   0.00000000000000E+00   0.00000000000000E+00
      0.00000000000000E+00   2.54364075450192E-15
      2.33333333333333E-02
      0.00000000000000E+00   0.00000000000000E+00   0.00000000000000E+00   0.00000000000000E+00   8.21890221292098E-17
     -6.96918176897338E-17   1.24972044394760E-17  -5.43161973954803E-15   0.00000000000000E+00   0.00000000000000E+00
      0.00000000000000E+00   0.00000000000000E+00  -1.15084336442625E-05  -1.08492894890033E-24  -1.15084336442625E-05
      1.41209077470777E-15   7.00000000000000E-02   7.00000000000000E-02   0.00000000000000E+00   0.00000000000000E+00
      1.15084336442500E-05   3.31924235525588E-20   1.15084336442500E-05   1.49467373218637E-15   3.00000000000000E+00
      3.00000000000000E+00   0.00000000000000E+00   0.00000000000000E+00   0.00000000000000E+00   0.00000000000000E+00
      0.00000000000000E+00   2.52485523265389E-15
      4.24444444444445E-02
      0.00000000000000E+00   0.00000000000000E+00   0.00000000000000E+00   0.00000000000000E+00   2.08900060814834E-15
     -1.25360923754566E-16   1.96363968439377E-15  -5.47108480178975E-15   0.00000000000000E+00   0.00000000000000E+00
      0.00000000000000E+00   0.00000000000000E+00  -1.82642228678753E-05  -1.72342433878994E-24  -1.82642228678753E-05
      1.41200063590550E-15   1.27333333333333E-01   1.27333333333333E-01   0.00000000000000E+00   0.00000000000000E+00
      1.82642228659116E-05   3.40487375204358E-20   1.82642228659116E-05   1.55987260615240E-15   3.00000000000000E+00
      3.00000000000000E+00   0.00000000000000E+00   0.00000000000000E+00   0.00000000000000E+00   0.00000000000000E+00
      0.00000000000000E+00   2.49921155973185E-15
      6.74444444444444E-02
      0.00000000000000E+00   0.00000000000000E+00   0.00000000000000E+00   0.00000000000000E+00   2.24612762322833E-18
     -2.38762493250790E-16  -2.36516365627562E-16  -5.52267163698106E-15   0.00000000000000E+00   0.00000000000000E+00
      0.00000000000000E+00   0.00000000000000E+00  -2.40903357304651E-05  -2.26791791996448E-24  -2.40903357304651E-05
      1.41191881331500E-15   2.02333333333333E-01   2.02333333333333E-01   0.00000000000000E+00   0.00000000000000E+00
      2.40903357307016E-05  -2.24262467319968E-21   2.40903357307016E-05   1.64209196567036E-15   3.00000000000000E+00
      3.00000000000000E+00   0.00000000000000E+00   0.00000000000000E+00   0.00000000000000E+00   0.00000000000000E+00
      0.00000000000000E+00   2.46866085799571E-15
      9.24444444444444E-02
      0.00000000000000E+00   0.00000000000000E+00   0.00000000000000E+00   0.00000000000000E+00  -1.76059430041880E-18
     -3.74881025378860E-16  -3.76641619679278E-16  -5.57559570144272E-15   0.00000000000000E+00   0.00000000000000E+00
      0.00000000000000E+00   0.00000000000000E+00  -2.73008524783938E-05  -2.57061839424894E-24  -2.73008524783938E-05
      1.41187195926361E-15   2.77333333333333E-01   2.77333333333333E-01   0.00000000000000E+00   0.00000000000000E+00
      2.73008524787704E-05   3.36584915739675E-20   2.73008524787704E-05   1.72127654034048E-15   3.00000000000000E+00
      3.00000000000000E+00   0.00000000000000E+00   0.00000000000000E+00   0.00000000000000E+00   0.00000000000000E+00
      0.00000000000000E+00   2.44244720183861E-15
      1.17444444444444E-01
      0.00000000000000E+00   0.00000000000000E+00   0.00000000000000E+00   0.00000000000000E+00  -2.18271948815703E-18
     -4.63001539117998E-16  -4.65184258606155E-16  -5.63098563529402E-15   0.00000000000000E+00   0.00000000000000E+00
      0.00000000000000E+00   0.00000000000000E+00  -2.88308940815707E-05  -2.71671975748893E-24  -2.88308940815707E-05
      1.41184916158395E-15   3.52333333333333E-01   3.52333333333333E-01   0.00000000000000E+00   0.00000000000000E+00
      2.88308940820358E-05   3.69004356368610E-20   2.88308940820359E-05   1.79823427501404E-15   3.00000000000000E+00
      3.00000000000000E+00   0.00000000000000E+00   0.00000000000000E+00   0.00000000000000E+00   0.00000000000000E+00
      0.00000000000000E+00   2.42090219869602E-15
      1.42444444444444E-01
      0.00000000000000E+00   0.00000000000000E+00   0.00000000000000E+00   0.00000000000000E+00  -1.37147524914013E-17
     -5.09160800905417E-16  -5.22875553396819E-16  -5.68866243193248E-15   0.00000000000000E+00   0.00000000000000E+00
      0.00000000000000E+00   0.00000000000000E+00  -2.95500846738061E-05  -2.78822191830918E-24  -2.95500846738061E-05
      1.41183833777642E-15   4.27333333333333E-01   4.27333333333333E-01   0.00000000000000E+00   0.00000000000000E+00
      2.95500846743289E-05   3.68761581593723E-20   2.95500846743289E-05   1.87378561472431E-15   3.00000000000000E+00
      3.00000000000000E+00   0.00000000000000E+00   0.00000000000000E+00   0.00000000000000E+00   0.00000000000000E+00
      0.00000000000000E+00   2.40303847943174E-15
      1.67444444444444E-01
      0.00000000000000E+00   0.00000000000000E+00   0.00000000000000E+00   0.00000000000000E+00   3.68555789319878E-19
     -5.43590331527524E-16  -5.43221775738204E-16  -5.74783726963246E-15   0.00000000000000E+00   0.00000000000000E+00
      0.00000000000000E+00   0.00000000000000E+00  -2.99614074521556E-05  -2.82395159545510E-24  -2.99614074521556E-05
      1.41183211587575E-15   5.02333333333333E-01   5.02333333333333E-01   0.00000000000000E+00   0.00000000000000E+00
      2.99614074526987E-05   3.68779845910560E-20   2.99614074526988E-05   1.94850266351555E-15   3.00000000000000E+00
      3.00000000000000E+00   0.00000000000000E+00   0.00000000000000E+00   0.00000000000000E+00   0.00000000000000E+00
      0.00000000000000E+00   2.38750249024115E-15
      1.92444444444444E-01
      0.00000000000000E+00   0.00000000000000E+00   0.00000000000000E+00   0.00000000000000E+00  -1.58755677931330E-18
     -5.74423227674844E-16  -5.76010784454157E-16  -5.80783564207397E-15   0.00000000000000E+00   0.00000000000000E+00
      0.00000000000000E+00   0.00000000000000E+00  -3.02506570497011E-05  -2.85113158342016E-24  -3.02506570497011E-05
      1.41182772667718E-15   5.77333333333333E-01   5.77333333333333E-01   0.00000000000000E+00   0.00000000000000E+00
      3.02506570502771E-05   3.68607283075611E-20   3.02506570502772E-05   2.02267800797749E-15   3.00000000000000E+00
      3.00000000000000E+00   0.00000000000000E+00   0.00000000000000E+00   0.00000000000000E+00   0.00000000000000E+00
      0.00000000000000E+00   2.37332990741931E-15
      2.17444444444444E-01
      0.00000000000000E+00   0.00000000000000E+00   0.00000000000000E+00   0.00000000000000E+00  -7.73187363102824E-19
     -6.05477126098370E-16  -6.06250313461473E-16  -5.86841200672680E-15   0.00000000000000E+00   0.00000000000000E+00
      0.00000000000000E+00   0.00000000000000E+00  -3.04768559331153E-05  -2.87177505441817E-24  -3.04768559331153E-05
      1.41182428622552E-15   6.52333333333333E-01   6.52333333333333E-01   0.00000000000000E+00   0.00000000000000E+00
      3.04768559337215E-05   3.68421833167776E-20   3.04768559337215E-05   2.09646541520030E-15   3.00000000000000E+00
      3.00000000000000E+00   0.00000000000000E+00   0.00000000000000E+00   0.00000000000000E+00   0.00000000000000E+00
      0.00000000000000E+00   2.36012230530099E-15
      2.42444444444444E-01
      0.00000000000000E+00   0.00000000000000E+00   0.00000000000000E+00   0.00000000000000E+00   2.88648012276255E-18
     -6.37916682062664E-16  -6.35030201939901E-16  -5.92936159208183E-15   0.00000000000000E+00   0.00000000000000E+00
      0.00000000000000E+00   0.00000000000000E+00  -3.06652944142124E-05  -2.89251505163064E-24  -3.06652944142124E-05
      1.41182141471157E-15   7.27333333333333E-01   7.27333333333333E-01   0.00000000000000E+00   0.00000000000000E+00
      3.06652944148474E-05   3.68232475604256E-20   3.06652944148474E-05   2.16991465069523E-15   3.00000000000000E+00
      3.00000000000000E+00   0.00000000000000E+00   0.00000000000000E+00   0.00000000000000E+00   0.00000000000000E+00
      0.00000000000000E+00   2.34762552667502E-15
      2.67444444444444E-01
      0.00000000000000E+00   0.00000000000000E+00   0.00000000000000E+00   0.00000000000000E+00  -1.08535960068115E-18
     -6.72619470699954E-16  -6.73704830300636E-16  -5.99046654130463E-15   0.00000000000000E+00   0.00000000000000E+00
      0.00000000000000E+00   0.00000000000000E+00  -3.08303464058501E-05  -2.90442479573589E-24  -3.08303464058501E-05
      1.41181889553077E-15   8.02333333333333E-01   8.02333333333333E-01   0.00000000000000E+00   0.00000000000000E+00
      3.08303464065237E-05   3.68048677261381E-20   3.08303464065237E-05   2.24301703102446E-15   3.00000000000000E+00
      3.00000000000000E+00   0.00000000000000E+00   0.00000000000000E+00   0.00000000000000E+00   0.00000000000000E+00
      0.00000000000000E+00   2.33563061474940E-15
      2.92444444444444E-01
      0.00000000000000E+00   0.00000000000000E+00   0.00000000000000E+00   0.00000000000000E+00   5.26808977449190E-18
     -7.14888414728218E-16  -7.09620324953726E-16  -6.05157370701716E-15   0.00000000000000E+00   0.00000000000000E+00
      0.00000000000000E+00   0.00000000000000E+00  -3.09796706290831E-05  -2.91924478169268E-24  -3.09796706290831E-05
      1.41181661314043E-15   8.77333333333333E-01   8.77333333333333E-01   0.00000000000000E+00   0.00000000000000E+00
      3.09796706297927E-05   3.67883422433451E-20   3.09796706297927E-05   2.31574782079405E-15   3.00000000000000E+00
      3.00000000000000E+00   0.00000000000000E+00   0.00000000000000E+00   0.00000000000000E+00   0.00000000000000E+00
      0.00000000000000E+00   2.32400927308268E-15
      3.17444444444444E-01
      0.00000000000000E+00   0.00000000000000E+00   0.00000000000000E+00   0.00000000000000E+00  -3.31290872391565E-18
     -7.71166884398963E-16  -7.74479793122879E-16  -6.11264130382878E-15   0.00000000000000E+00   0.00000000000000E+00
      0.00000000000000E+00   0.00000000000000E+00  -3.11167817172562E-05  -2.93159813276871E-24  -3.11167817172562E-05
      1.41181451468889E-15   9.52333333333333E-01   9.52333333333333E-01   0.00000000000000E+00   0.00000000000000E+00
      3.11167817180306E-05   3.67755257469978E-20   3.11167817180306E-05   2.38810208469268E-15   3.00000000000000E+00
      3.00000000000000E+00   0.00000000000000E+00   0.00000000000000E+00   0.00000000000000E+00   0.00000000000000E+00
      0.00000000000000E+00   2.31272470444722E-15
      3.42444444444444E-01
      0.00000000000000E+00   0.00000000000000E+00   0.00000000000000E+00   0.00000000000000E+00  -4.53691918684422E-18
     -8.47479329877820E-16  -8.52016249064664E-16  -6.17372416499598E-15   0.00000000000000E+00   0.00000000000000E+00
      0.00000000000000E+00   0.00000000000000E+00  -3.12429906123028E-05  -2.94094386210964E-24  -3.12429906123028E-05
      1.41181258077111E-15   1.02733333333333E+00   1.02733333333333E+00   0.00000000000000E+00   0.00000000000000E+00
      3.12429906131548E-05   3.67675573255341E-20   3.12429906131548E-05   2.46010282794876E-15   3.00000000000000E+00
      3.00000000000000E+00   0.00000000000000E+00   0.00000000000000E+00   0.00000000000000E+00   0.00000000000000E+00
      0.00000000000000E+00   2.30180875627612E-15
      3.67444444444445E-01
      0.00000000000000E+00   0.00000000000000E+00   0.00000000000000E+00   0.00000000000000E+00   2.79064748119113E-18
     -9.46890309057323E-16  -9.44099661576132E-16  -6.23493483346104E-15   0.00000000000000E+00   0.00000000000000E+00
      0.00000000000000E+00   0.00000000000000E+00  -3.13587185753685E-05  -2.95287609928970E-24  -3.13587185753685E-05
      1.41181080549355E-15   1.10233333333333E+00   1.10233333333333E+00   0.00000000000000E+00   0.00000000000000E+00
      3.13587185763125E-05   3.67639332947692E-20   3.13587185763126E-05   2.53179337689099E-15   3.00000000000000E+00
      3.00000000000000E+00   0.00000000000000E+00   0.00000000000000E+00   0.00000000000000E+00   0.00000000000000E+00
      0.00000000000000E+00   2.29133065107651E-15
      3.92444444444445E-01
      0.00000000000000E+00   0.00000000000000E+00   0.00000000000000E+00   0.00000000000000E+00  -8.09841417086121E-19
     -1.07162194802521E-15  -1.07243178944230E-15  -6.29635319565936E-15   0.00000000000000E+00   0.00000000000000E+00
      0.00000000000000E+00   0.00000000000000E+00  -3.14646098811282E-05  -2.96677558506814E-24  -3.14646098811282E-05
      1.41180917946425E-15   1.17733333333333E+00   1.17733333333333E+00   0.00000000000000E+00   0.00000000000000E+00
      3.14646098822006E-05   3.67641147524276E-20   3.14646098822006E-05   2.60320181312240E-15   3.00000000000000E+00
      3.00000000000000E+00   0.00000000000000E+00   0.00000000000000E+00   0.00000000000000E+00   0.00000000000000E+00
      0.00000000000000E+00   2.28134220307270E-15
      4.17444444444445E-01
      0.00000000000000E+00   0.00000000000000E+00   0.00000000000000E+00   0.00000000000000E+00  -4.50867600451442E-18
     -1.22134543648663E-15  -1.22585411249114E-15  -6.35797341075386E-15   0.00000000000000E+00   0.00000000000000E+00
      0.00000000000000E+00   0.00000000000000E+00  -3.15616989858006E-05  -2.97564871503269E-24  -3.15616989858006E-05
      1.41180768721256E-15   1.25233333333333E+00   1.25233333333333E+00   0.00000000000000E+00   0.00000000000000E+00
      3.15616989870264E-05   3.67674846397693E-20   3.15616989870265E-05   2.67430979526994E-15   3.00000000000000E+00
      3.00000000000000E+00   0.00000000000000E+00   0.00000000000000E+00   0.00000000000000E+00   0.00000000000000E+00
      0.00000000000000E+00   2.27185592827136E-15
      4.42444444444445E-01
      0.00000000000000E+00   0.00000000000000E+00   0.00000000000000E+00   0.00000000000000E+00  -5.42918238646080E-15
     -1.37535014912493E-15  -6.80453253558573E-15  -6.41964143146691E-15   0.00000000000000E+00   0.00000000000000E+00
      0.00000000000000E+00   0.00000000000000E+00  -3.16514071720217E-05  -2.98298940350255E-24  -3.16514071720217E-05
      1.41180630722438E-15   1.32733333333333E+00   1.32733333333333E+00   0.00000000000000E+00   0.00000000000000E+00
      3.16514071788261E-05   3.67731278694762E-20   3.16514071788262E-05   2.74500380379128E-15   3.00000000000000E+00
      3.00000000000000E+00   0.00000000000000E+00   0.00000000000000E+00   0.00000000000000E+00   0.00000000000000E+00
      0.00000000000000E+00   2.26283132045125E-15
      4.67444444444445E-01
      0.00000000000000E+00   0.00000000000000E+00   0.00000000000000E+00   0.00000000000000E+00   2.38865417143170E-15
     -1.49830537698498E-15   8.90348794446722E-16  -6.48103300051511E-15   0.00000000000000E+00   0.00000000000000E+00
      0.00000000000000E+00   0.00000000000000E+00  -3.17352568157696E-05  -2.99270326852844E-24  -3.17352568157696E-05
      1.41180501633159E-15   1.40233333333333E+00   1.40233333333333E+00   0.00000000000000E+00   0.00000000000000E+00
      3.17352568148792E-05   3.67804134314746E-20   3.17352568148793E-05   2.81503815470302E-15   3.00000000000000E+00
      3.00000000000000E+00   0.00000000000000E+00   0.00000000000000E+00   0.00000000000000E+00   0.00000000000000E+00
      0.00000000000000E+00   2.25418982948049E-15
      4.92444444444445E-01
      0.00000000000000E+00   0.00000000000000E+00   0.00000000000000E+00   0.00000000000000E+00   1.43149513131794E-16
     -1.57709631225453E-15  -1.43394679912274E-15  -6.54165396756901E-15   0.00000000000000E+00   0.00000000000000E+00
      0.00000000000000E+00   0.00000000000000E+00  -3.18148686774028E-05  -2.99934888099165E-24  -3.18148686774028E-05
      1.41180378976096E-15   1.47733333333333E+00   1.47733333333333E+00   0.00000000000000E+00   0.00000000000000E+00
      3.18148686788367E-05   3.67883577578667E-20   3.18148686788367E-05   2.88403663976124E-15   3.00000000000000E+00
      3.00000000000000E+00   0.00000000000000E+00   0.00000000000000E+00   0.00000000000000E+00   0.00000000000000E+00
      0.00000000000000E+00   2.24581353804681E-15
      5.17444444444445E-01
      0.00000000000000E+00   0.00000000000000E+00   0.00000000000000E+00   0.00000000000000E+00   3.75027957677420E-18
     -1.62423981152758E-15  -1.62048953195081E-15  -6.60109639092959E-15   0.00000000000000E+00   0.00000000000000E+00
      0.00000000000000E+00   0.00000000000000E+00  -3.18915646230034E-05  -3.00479636072313E-24  -3.18915646230034E-05
      1.41180260726681E-15   1.55233333333333E+00   1.55233333333333E+00   0.00000000000000E+00   0.00000000000000E+00
      3.18915646246238E-05   3.67964896532321E-20   3.18915646246238E-05   2.95169975717023E-15   3.00000000000000E+00
      3.00000000000000E+00   0.00000000000000E+00   0.00000000000000E+00   0.00000000000000E+00   0.00000000000000E+00
      0.00000000000000E+00   2.23759402649255E-15
      5.42444444444445E-01
      0.00000000000000E+00   0.00000000000000E+00   0.00000000000000E+00   0.00000000000000E+00   1.24379648425404E-18
     -1.65525148607921E-15  -1.65400768959496E-15  -6.65927844242081E-15   0.00000000000000E+00   0.00000000000000E+00
      0.00000000000000E+00   0.00000000000000E+00  -3.19659957818062E-05  -3.01052201344905E-24  -3.19659957818062E-05
      1.41180145889349E-15   1.62733333333333E+00   1.62733333333333E+00   0.00000000000000E+00   0.00000000000000E+00
      3.19659957834601E-05   3.68044853637231E-20   3.19659957834601E-05   3.01799622782317E-15   3.00000000000000E+00
      3.00000000000000E+00   0.00000000000000E+00   0.00000000000000E+00   0.00000000000000E+00   0.00000000000000E+00
      0.00000000000000E+00   2.22948075570415E-15
      5.67444444444445E-01
      0.00000000000000E+00   0.00000000000000E+00   0.00000000000000E+00   0.00000000000000E+00   2.23572128383599E-18
     -1.67836036796079E-15  -1.67612464667695E-15  -6.71637719410014E-15   0.00000000000000E+00   0.00000000000000E+00
      0.00000000000000E+00   0.00000000000000E+00  -3.20383627584885E-05  -3.02153362795575E-24  -3.20383627584885E-05
      1.41180034161347E-15   1.70233333333333E+00   1.70233333333333E+00   0.00000000000000E+00   0.00000000000000E+00
      3.20383627601646E-05   3.68122018330586E-20   3.20383627601646E-05   3.08311050641783E-15   3.00000000000000E+00
      3.00000000000000E+00   0.00000000000000E+00   0.00000000000000E+00   0.00000000000000E+00   0.00000000000000E+00
      0.00000000000000E+00   2.22146634606883E-15
      5.92444444444445E-01
      0.00000000000000E+00   0.00000000000000E+00   0.00000000000000E+00   0.00000000000000E+00  -5.49529034854690E-19
     -1.69561752805501E-15  -1.69616705708987E-15  -6.77264881403899E-15   0.00000000000000E+00   0.00000000000000E+00
      0.00000000000000E+00   0.00000000000000E+00  -3.21086869218330E-05  -3.02431764339055E-24  -3.21086869218330E-05
      1.41179925515914E-15   1.77733333333333E+00   1.77733333333333E+00   0.00000000000000E+00   0.00000000000000E+00
      3.21086869235291E-05   3.68195979046512E-20   3.21086869235292E-05   3.14728822133688E-15   3.00000000000000E+00
      3.00000000000000E+00   0.00000000000000E+00   0.00000000000000E+00   0.00000000000000E+00   0.00000000000000E+00
      0.00000000000000E+00   2.21356133754295E-15
      6.17444444444445E-01
      0.00000000000000E+00   0.00000000000000E+00   0.00000000000000E+00   0.00000000000000E+00  -1.07174159077590E-18
     -1.70782318716387E-15  -1.70889492875464E-15  -6.82830783627599E-15   0.00000000000000E+00   0.00000000000000E+00
      0.00000000000000E+00   0.00000000000000E+00  -3.21769590582534E-05  -3.03242131356170E-24  -3.21769590582534E-05
      1.41179819973336E-15   1.85233333333333E+00   1.85233333333333E+00   0.00000000000000E+00   0.00000000000000E+00
      3.21769590599622E-05   3.68266718351039E-20   3.21769590599623E-05   3.21073064640011E-15   3.00000000000000E+00
      3.00000000000000E+00   0.00000000000000E+00   0.00000000000000E+00   0.00000000000000E+00   0.00000000000000E+00
      0.00000000000000E+00   2.20577899014250E-15
      6.42444444444445E-01
      0.00000000000000E+00   0.00000000000000E+00   0.00000000000000E+00   0.00000000000000E+00   4.10524259994108E-18
     -1.71670952427081E-15  -1.71260428167087E-15  -6.88349971126964E-15   0.00000000000000E+00   0.00000000000000E+00
      0.00000000000000E+00   0.00000000000000E+00  -3.22432609544063E-05  -3.03577827978166E-24  -3.22432609544063E-05
      1.41179717412960E-15   1.92733333333333E+00   1.92733333333333E+00   0.00000000000000E+00   0.00000000000000E+00
      3.22432609561188E-05   3.68334345702432E-20   3.22432609561189E-05   3.27358146458329E-15   3.00000000000000E+00
      3.00000000000000E+00   0.00000000000000E+00   0.00000000000000E+00   0.00000000000000E+00   0.00000000000000E+00
      0.00000000000000E+00   2.19812107255674E-15
      6.67444444444445E-01
      0.00000000000000E+00   0.00000000000000E+00   0.00000000000000E+00   0.00000000000000E+00   1.50612291064485E-18
     -1.72434533205347E-15  -1.72283920914282E-15  -6.93832466737761E-15   0.00000000000000E+00   0.00000000000000E+00
      0.00000000000000E+00   0.00000000000000E+00  -3.23078383517744E-05  -3.04408706117160E-24  -3.23078383517744E-05
      1.41179617459841E-15   2.00233333333333E+00   2.00233333333333E+00   0.00000000000000E+00   0.00000000000000E+00
      3.23078383534973E-05   3.68399002633796E-20   3.23078383534973E-05   3.33596042869052E-15   3.00000000000000E+00
      3.00000000000000E+00   0.00000000000000E+00   0.00000000000000E+00   0.00000000000000E+00   0.00000000000000E+00
      0.00000000000000E+00   2.19056806408868E-15
      6.92444444444445E-01
      0.00000000000000E+00   0.00000000000000E+00   0.00000000000000E+00   0.00000000000000E+00  -1.03894226099877E-18
     -1.73264362143343E-15  -1.73368256369443E-15  -6.99286035559094E-15   0.00000000000000E+00   0.00000000000000E+00
      0.00000000000000E+00   0.00000000000000E+00  -3.23710338841669E-05  -3.05070809878250E-24  -3.23710338841669E-05
      1.41179519587850E-15   2.07733333333333E+00   2.07733333333333E+00   0.00000000000000E+00   0.00000000000000E+00
      3.23710338859005E-05   3.68460815754061E-20   3.23710338859006E-05   3.39797905512076E-15   3.00000000000000E+00
      3.00000000000000E+00   0.00000000000000E+00   0.00000000000000E+00   0.00000000000000E+00   0.00000000000000E+00
      0.00000000000000E+00   2.18308610459168E-15
      7.17444444444445E-01
      0.00000000000000E+00   0.00000000000000E+00   0.00000000000000E+00   0.00000000000000E+00   5.75971605814864E-19
     -1.74287761453519E-15  -1.74230164292938E-15  -7.04716431649243E-15   0.00000000000000E+00   0.00000000000000E+00
      0.00000000000000E+00   0.00000000000000E+00  -3.24331510462164E-05  -3.05862614469428E-24  -3.24331510462164E-05
      1.41179423330244E-15   2.15233333333333E+00   2.15233333333333E+00   0.00000000000000E+00   0.00000000000000E+00
      3.24331510479586E-05   3.68519947030168E-20   3.24331510479587E-05   3.45972665986775E-15   3.00000000000000E+00
      3.00000000000000E+00   0.00000000000000E+00   0.00000000000000E+00   0.00000000000000E+00   0.00000000000000E+00
      0.00000000000000E+00   2.17564342332225E-15
      7.42444444444445E-01
      0.00000000000000E+00   0.00000000000000E+00   0.00000000000000E+00   0.00000000000000E+00   4.22746540174165E-18
     -1.75517910850385E-15  -1.75095164310211E-15  -7.10127112812678E-15   0.00000000000000E+00   0.00000000000000E+00
      0.00000000000000E+00   0.00000000000000E+00  -3.24943823553448E-05  -3.06188003935897E-24  -3.24943823553448E-05
      1.41179328391252E-15   2.22733333333333E+00   2.22733333333333E+00   0.00000000000000E+00   0.00000000000000E+00
      3.24943823570957E-05   3.68576616766838E-20   3.24943823570957E-05   3.52125790129134E-15   3.00000000000000E+00
      3.00000000000000E+00   0.00000000000000E+00   0.00000000000000E+00   0.00000000000000E+00   0.00000000000000E+00
      0.00000000000000E+00   2.16821994292292E-15
      7.67444444444445E-01
      0.00000000000000E+00   0.00000000000000E+00   0.00000000000000E+00   0.00000000000000E+00  -2.43839208775176E-18
     -1.76889770273867E-15  -1.77133609482643E-15  -7.15519710509803E-15   0.00000000000000E+00   0.00000000000000E+00
      0.00000000000000E+00   0.00000000000000E+00  -3.25548321451706E-05  -3.06608262859726E-24  -3.25548321451706E-05
      1.41179234611240E-15   2.30233333333333E+00   2.30233333333333E+00   0.00000000000000E+00   0.00000000000000E+00
      3.25548321469419E-05   3.68631062329153E-20   3.25548321469420E-05   3.58259935875238E-15   3.00000000000000E+00
      3.00000000000000E+00   0.00000000000000E+00   0.00000000000000E+00   0.00000000000000E+00   0.00000000000000E+00
      0.00000000000000E+00   2.16080540023325E-15
      7.92444444444445E-01
      0.00000000000000E+00   0.00000000000000E+00   0.00000000000000E+00   0.00000000000000E+00  -1.30917927457006E-18
     -1.78312194739875E-15  -1.78443112667332E-15  -7.20894709965610E-15   0.00000000000000E+00   0.00000000000000E+00
      0.00000000000000E+00   0.00000000000000E+00  -3.26145566814058E-05  -3.07151875159040E-24  -3.26145566814058E-05
      1.41179141904816E-15   2.37733333333333E+00   2.37733333333333E+00   0.00000000000000E+00   0.00000000000000E+00
      3.26145566831902E-05   3.68683489873763E-20   3.26145566831902E-05   3.64376059788727E-15   3.00000000000000E+00
      3.00000000000000E+00   0.00000000000000E+00   0.00000000000000E+00   0.00000000000000E+00   0.00000000000000E+00
      0.00000000000000E+00   2.15339508272067E-15
      8.17444444444445E-01
      0.00000000000000E+00   0.00000000000000E+00   0.00000000000000E+00   0.00000000000000E+00   6.99705673765610E-18
     -1.79684677528711E-15  -1.78984971854945E-15  -7.26252004374385E-15   0.00000000000000E+00   0.00000000000000E+00
      0.00000000000000E+00   0.00000000000000E+00  -3.26735906158588E-05  -3.08187891605954E-24  -3.26735906158588E-05
      1.41179050219944E-15   2.45233333333333E+00   2.45233333333333E+00   0.00000000000000E+00   0.00000000000000E+00
      3.26735906176486E-05   3.68733506038971E-20   3.26735906176487E-05   3.70474260232903E-15   3.00000000000000E+00
      3.00000000000000E+00   0.00000000000000E+00   0.00000000000000E+00   0.00000000000000E+00   0.00000000000000E+00
      0.00000000000000E+00   2.14598693921539E-15
      8.42444444444445E-01
      0.00000000000000E+00   0.00000000000000E+00   0.00000000000000E+00   0.00000000000000E+00  -8.01119174177010E-19
     -1.81050828781966E-15  -1.81130940699384E-15  -7.31591289176409E-15   0.00000000000000E+00   0.00000000000000E+00
      0.00000000000000E+00   0.00000000000000E+00  -3.27319603596390E-05  -3.08509449447248E-24  -3.27319603596390E-05
      1.41178959517302E-15   2.52733333333333E+00   2.52733333333333E+00   0.00000000000000E+00   0.00000000000000E+00
      3.27319603614503E-05   3.68782623223092E-20   3.27319603614503E-05   3.76554321410316E-15   3.00000000000000E+00
      3.00000000000000E+00   0.00000000000000E+00   0.00000000000000E+00   0.00000000000000E+00   0.00000000000000E+00
      0.00000000000000E+00   2.13858008248792E-15
      8.67444444444445E-01
      0.00000000000000E+00   0.00000000000000E+00   0.00000000000000E+00   0.00000000000000E+00  -1.36312837432305E-18