DF-ISE text

Info {
  version   = 1.0
  type      = xyplot
  datasets  = [
    "time"
    "substrate OuterVoltage" "substrate InnerVoltage" "substrate QuasiFermiPotential" "substrate DisplacementCurrent" "substrate eCurrent"
    "substrate hCurrent" "substrate TotalCurrent" "substrate Charge" "source OuterVoltage" "source InnerVoltage"
    "source QuasiFermiPotential" "source DisplacementCurrent" "source eCurrent" "source hCurrent" "source TotalCurrent"
    "source Charge" "drain OuterVoltage" "drain InnerVoltage" "drain QuasiFermiPotential" "drain DisplacementCurrent"
    "drain eCurrent" "drain hCurrent" "drain TotalCurrent" "drain Charge" "gate OuterVoltage"
    "gate InnerVoltage" "gate QuasiFermiPotential" "gate DisplacementCurrent" "gate eCurrent" "gate hCurrent"
    "gate TotalCurrent" "gate Charge" ]
  functions = [
    Time
    OuterVoltage InnerVoltage QuasiFermiPotential DisplacementCurrent eCurrent
    hCurrent TotalCurrent Charge OuterVoltage InnerVoltage
    QuasiFermiPotential DisplacementCurrent eCurrent hCurrent TotalCurrent
    Charge OuterVoltage InnerVoltage QuasiFermiPotential DisplacementCurrent
    eCurrent hCurrent TotalCurrent Charge OuterVoltage
    InnerVoltage QuasiFermiPotential DisplacementCurrent eCurrent hCurrent
    TotalCurrent Charge ]
}

Data {
      0.00000000000000E+00
      0.00000000000000E+00   0.00000000000000E+00   0.00000000000000E+00   0.00000000000000E+00  -6.89824119824577E-34
     -4.42469636657099E-17  -4.42469636657099E-17   2.97059460245599E-17   0.00000000000000E+00   0.00000000000000E+00
      0.00000000000000E+00   0.00000000000000E+00  -9.26816114134489E-34   2.83564569415958E-17   2.83564569415958E-17
     -8.73611580523508E-16   0.00000000000000E+00   0.00000000000000E+00   0.00000000000000E+00   0.00000000000000E+00
     -1.02272938573469E-33   1.58905067241142E-17   1.58905067241142E-17  -7.51243576533243E-16   1.00000000000000E+00
      1.00000000000000E+00   0.00000000000000E+00   0.00000000000000E+00   0.00000000000000E+00   0.00000000000000E+00
      0.00000000000000E+00   1.59514921103219E-15
      1.00000000000000E-02
      0.00000000000000E+00   0.00000000000000E+00   0.00000000000000E+00   0.00000000000000E+00  -2.46049196783822E-20
     -3.14174565821031E-05  -3.14174565821031E-05   2.96915078446815E-17   0.00000000000000E+00   0.00000000000000E+00
      0.00000000000000E+00   0.00000000000000E+00  -9.10755788499746E-21  -1.28067374934345E-04  -1.28067374934345E-04
     -8.66385682882844E-16   3.00000000000000E-02   3.00000000000000E-02   0.00000000000000E+00   0.00000000000000E+00
      1.12230514129809E-20   1.59484831516448E-04   1.59484831516448E-04  -7.44583482836840E-16   1.00000000000000E+00
      1.00000000000000E+00   0.00000000000000E+00   0.00000000000000E+00   0.00000000000000E+00   0.00000000000000E+00
      0.00000000000000E+00   1.58127765787500E-15
      2.36666666666667E-02
      0.00000000000000E+00   0.00000000000000E+00   0.00000000000000E+00   0.00000000000000E+00  -7.53759708304092E-20
     -7.42778697040023E-05  -7.42778697040024E-05   2.96718332184538E-17   0.00000000000000E+00   0.00000000000000E+00
      0.00000000000000E+00   0.00000000000000E+00  -2.18010865808641E-20  -3.03053907680304E-04  -3.03053907680304E-04
     -8.56518625478807E-16   7.10000000000000E-02   7.10000000000000E-02   0.00000000000000E+00   0.00000000000000E+00
      2.62293303724990E-20   3.77331777384306E-04   3.77331777384306E-04  -7.35488716267438E-16   1.00000000000000E+00
      1.00000000000000E+00   0.00000000000000E+00   0.00000000000000E+00   0.00000000000000E+00   0.00000000000000E+00
      0.00000000000000E+00   1.56233550852779E-15
      4.37111111111111E-02
      0.00000000000000E+00   0.00000000000000E+00   0.00000000000000E+00   0.00000000000000E+00  -1.95566676762125E-19
     -1.36961233015744E-04  -1.36961233015744E-04   2.96431098964314E-17   0.00000000000000E+00   0.00000000000000E+00
      0.00000000000000E+00   0.00000000000000E+00  -4.08692490129314E-20  -5.59611013513891E-04  -5.59611013513891E-04
     -8.42064038381747E-16   1.31133333333333E-01   1.31133333333333E-01   0.00000000000000E+00   0.00000000000000E+00
      4.77738261900849E-20   6.96572246529636E-04   6.96572246529636E-04  -7.22164867485009E-16   1.00000000000000E+00
      1.00000000000000E+00   0.00000000000000E+00   0.00000000000000E+00   0.00000000000000E+00   0.00000000000000E+00
      0.00000000000000E+00   1.53458579597032E-15
      6.87111111111111E-02
      0.00000000000000E+00   0.00000000000000E+00   0.00000000000000E+00   0.00000000000000E+00  -4.14191106247387E-19
     -2.14822571966607E-04  -2.14822571966607E-04   2.96075214604615E-17   0.00000000000000E+00   0.00000000000000E+00
      0.00000000000000E+00   0.00000000000000E+00  -6.52509011377145E-20  -8.79435891140973E-04  -8.79435891140973E-04
     -8.24063847781853E-16   2.06133333333333E-01   2.06133333333333E-01   0.00000000000000E+00   0.00000000000000E+00
      7.47144860080812E-20   1.09425846310758E-03   1.09425846310758E-03  -7.05571824123464E-16   1.00000000000000E+00
      1.00000000000000E+00   0.00000000000000E+00   0.00000000000000E+00   0.00000000000000E+00   0.00000000000000E+00
      0.00000000000000E+00   1.50002815044486E-15
      9.37111111111111E-02
      0.00000000000000E+00   0.00000000000000E+00   0.00000000000000E+00   0.00000000000000E+00  -6.56536949036758E-19
     -2.92311903929206E-04  -2.92311903929207E-04   2.95722072367352E-17   0.00000000000000E+00   0.00000000000000E+00
      0.00000000000000E+00   0.00000000000000E+00  -9.00768031631816E-20  -1.19907335241549E-03  -1.19907335241549E-03
     -8.06094081985223E-16   2.81133333333333E-01   2.81133333333333E-01   0.00000000000000E+00   0.00000000000000E+00
      1.02760904694891E-19   1.49138525634470E-03   1.49138525634470E-03  -6.89005844437255E-16   1.00000000000000E+00
      1.00000000000000E+00   0.00000000000000E+00   0.00000000000000E+00   0.00000000000000E+00   0.00000000000000E+00
      0.00000000000000E+00   1.46552771918574E-15
      1.18711111111111E-01
      0.00000000000000E+00   0.00000000000000E+00   0.00000000000000E+00   0.00000000000000E+00  -8.80685174289000E-19
     -3.69416644660127E-04  -3.69416644660128E-04   2.95371757458748E-17   0.00000000000000E+00   0.00000000000000E+00
      0.00000000000000E+00   0.00000000000000E+00  -1.15131800282671E-19  -1.51851649490018E-03  -1.51851649490018E-03
     -7.88154045435463E-16   3.56133333333333E-01   3.56133333333333E-01   0.00000000000000E+00   0.00000000000000E+00
      1.32611933283406E-19   1.88793313956031E-03   1.88793313956031E-03  -6.72466356764607E-16   1.00000000000000E+00
      1.00000000000000E+00   0.00000000000000E+00   0.00000000000000E+00   0.00000000000000E+00   0.00000000000000E+00
      0.00000000000000E+00   1.43108322645420E-15
      1.43711111111111E-01
      0.00000000000000E+00   0.00000000000000E+00   0.00000000000000E+00   0.00000000000000E+00  -1.08341891902745E-18
     -4.46128202817308E-04  -4.46128202817309E-04   2.95024327501095E-17   0.00000000000000E+00   0.00000000000000E+00
      0.00000000000000E+00   0.00000000000000E+00  -1.40270429244540E-19  -1.83776053549725E-03  -1.83776053549725E-03
     -7.70243002080094E-16   4.31133333333333E-01   4.31133333333333E-01   0.00000000000000E+00   0.00000000000000E+00
      1.64947868932905E-19   2.28388873831456E-03   2.28388873831456E-03  -6.55952745543610E-16   1.00000000000000E+00
      1.00000000000000E+00   0.00000000000000E+00   0.00000000000000E+00   0.00000000000000E+00   0.00000000000000E+00
      0.00000000000000E+00   1.39669331487359E-15
      1.68711111111111E-01
      0.00000000000000E+00   0.00000000000000E+00   0.00000000000000E+00   0.00000000000000E+00  -1.27340877906037E-18
     -5.22440669138459E-04  -5.22440669138460E-04   2.94679821702879E-17   0.00000000000000E+00   0.00000000000000E+00
      0.00000000000000E+00   0.00000000000000E+00  -1.65410469713732E-19  -2.15680229743993E-03  -2.15680229743993E-03
     -7.52360165021852E-16   5.06133333333333E-01   5.06133333333333E-01   0.00000000000000E+00   0.00000000000000E+00
      2.00534293900865E-19   2.67924296657839E-03   2.67924296657839E-03  -6.39464344769513E-16   1.00000000000000E+00
      1.00000000000000E+00   0.00000000000000E+00   0.00000000000000E+00   0.00000000000000E+00   0.00000000000000E+00
      0.00000000000000E+00   1.36235652762108E-15
      1.93711111111111E-01
      0.00000000000000E+00   0.00000000000000E+00   0.00000000000000E+00   0.00000000000000E+00  -1.45683567237153E-18
     -5.98350103139287E-04  -5.98350103139289E-04   2.94338265828610E-17   0.00000000000000E+00   0.00000000000000E+00
      0.00000000000000E+00   0.00000000000000E+00  -1.90509928708427E-19  -2.47563989823544E-03  -2.47563989823544E-03
     -7.34504693216776E-16   5.81133333333333E-01   5.81133333333333E-01   0.00000000000000E+00   0.00000000000000E+00
      2.40050356066256E-19   3.07399000137473E-03   3.07399000137473E-03  -6.23000436585151E-16   1.00000000000000E+00
      1.00000000000000E+00   0.00000000000000E+00   0.00000000000000E+00   0.00000000000000E+00   0.00000000000000E+00
      0.00000000000000E+00   1.32807130321907E-15
      2.18711111111111E-01
      0.00000000000000E+00   0.00000000000000E+00   0.00000000000000E+00   0.00000000000000E+00  -1.63654008194363E-18
     -6.73854078353473E-04  -6.73854078353475E-04   2.93999675311673E-17   0.00000000000000E+00   0.00000000000000E+00
      0.00000000000000E+00   0.00000000000000E+00  -2.15550437980226E-19  -2.79427250046271E-03  -2.79427250046271E-03
     -7.16675694190327E-16   6.56133333333333E-01   6.56133333333333E-01   0.00000000000000E+00   0.00000000000000E+00
      2.83988126935466E-19   3.46812657881618E-03   3.46812657881618E-03  -6.06560254612704E-16   1.00000000000000E+00
      1.00000000000000E+00   0.00000000000000E+00   0.00000000000000E+00   0.00000000000000E+00   0.00000000000000E+00
      0.00000000000000E+00   1.29383598127186E-15
      2.43711111111111E-01
      0.00000000000000E+00   0.00000000000000E+00   0.00000000000000E+00   0.00000000000000E+00  -1.81362094935350E-18
     -7.48951358451910E-04  -7.48951358451912E-04   2.93664057465573E-17   0.00000000000000E+00   0.00000000000000E+00
      0.00000000000000E+00   0.00000000000000E+00  -2.40526857814632E-19  -3.11270008909997E-03  -3.11270008909997E-03
     -6.98872231256830E-16   7.31133333333333E-01   7.31133333333333E-01   0.00000000000000E+00   0.00000000000000E+00
      3.32644543291371E-19   3.86165144755188E-03   3.86165144755188E-03  -5.90142991087301E-16   1.00000000000000E+00
      1.00000000000000E+00   0.00000000000000E+00   0.00000000000000E+00   0.00000000000000E+00   0.00000000000000E+00
      0.00000000000000E+00   1.25964881659757E-15
      2.68711111111111E-01
      0.00000000000000E+00   0.00000000000000E+00   0.00000000000000E+00   0.00000000000000E+00  -1.98847384999588E-18
     -8.23641649429025E-04  -8.23641649429027E-04   2.93331413183834E-17   0.00000000000000E+00   0.00000000000000E+00
      0.00000000000000E+00   0.00000000000000E+00  -2.65440864146413E-19  -3.43092326984766E-03  -3.43092326984766E-03
     -6.81093333620192E-16   8.06133333333333E-01   8.06133333333333E-01   0.00000000000000E+00   0.00000000000000E+00
      3.86151405505846E-19   4.25456491927669E-03   4.25456491927669E-03  -5.73747806377247E-16   1.00000000000000E+00
      1.00000000000000E+00   0.00000000000000E+00   0.00000000000000E+00   0.00000000000000E+00   0.00000000000000E+00
      0.00000000000000E+00   1.22550799867906E-15
      2.93711111111111E-01
      0.00000000000000E+00   0.00000000000000E+00   0.00000000000000E+00   0.00000000000000E+00  -2.16124430165784E-18
     -8.97925401718811E-04  -8.97925401718813E-04   2.93001738226515E-17   0.00000000000000E+00   0.00000000000000E+00
      0.00000000000000E+00   0.00000000000000E+00  -2.90297173500868E-19  -3.74894308867556E-03  -3.74894308867556E-03
     -6.63338007557756E-16   8.81133333333333E-01   8.81133333333333E-01   0.00000000000000E+00   0.00000000000000E+00
      4.44512503160992E-19   4.64686849039437E-03   4.64686849039437E-03  -5.57373839320978E-16   1.00000000000000E+00
      1.00000000000000E+00   0.00000000000000E+00   0.00000000000000E+00   0.00000000000000E+00   0.00000000000000E+00
      0.00000000000000E+00   1.19141167305608E-15
      3.18711111111111E-01
      0.00000000000000E+00   0.00000000000000E+00   0.00000000000000E+00   0.00000000000000E+00  -2.33199609513062E-18
     -9.71803647955709E-04  -9.71803647955711E-04   2.92675024330887E-17   0.00000000000000E+00   0.00000000000000E+00
      0.00000000000000E+00   0.00000000000000E+00  -3.15101472967454E-19  -4.06676087155633E-03  -4.06676087155633E-03
     -6.45605248247539E-16   9.56133333333333E-01   9.56133333333333E-01   0.00000000000000E+00   0.00000000000000E+00
      5.07637140233433E-19   5.03856451951204E-03   5.03856451951204E-03  -5.41020218020437E-16   1.00000000000000E+00
      1.00000000000000E+00   0.00000000000000E+00   0.00000000000000E+00   0.00000000000000E+00   0.00000000000000E+00
      0.00000000000000E+00   1.15735796383489E-15
      3.43711111111111E-01
      0.00000000000000E+00   0.00000000000000E+00   0.00000000000000E+00   0.00000000000000E+00  -2.50076808365087E-18
     -1.04527786867562E-03  -1.04527786867563E-03   2.92351260108686E-17   0.00000000000000E+00   0.00000000000000E+00
      0.00000000000000E+00   0.00000000000000E+00  -3.39859382352700E-19  -4.38437808543174E-03  -4.38437808543174E-03
     -6.27894051058769E-16   1.03113333333333E+00   1.03113333333333E+00   0.00000000000000E+00   0.00000000000000E+00
      5.75367648708323E-19   5.42965595410736E-03   5.42965595410736E-03  -5.24686070135818E-16   1.00000000000000E+00
      1.00000000000000E+00   0.00000000000000E+00   0.00000000000000E+00   0.00000000000000E+00   0.00000000000000E+00
      0.00000000000000E+00   1.12334499518372E-15
      3.68711111111111E-01
      0.00000000000000E+00   0.00000000000000E+00   0.00000000000000E+00   0.00000000000000E+00  -2.66759200764355E-18
     -1.11834988077027E-03  -1.11834988077028E-03   2.92030431799475E-17   0.00000000000000E+00   0.00000000000000E+00
      0.00000000000000E+00   0.00000000000000E+00  -3.64575998243337E-19  -4.70179622056474E-03  -4.70179622056474E-03
     -6.10203421952802E-16   1.10613333333333E+00   1.10613333333333E+00   0.00000000000000E+00   0.00000000000000E+00
      6.47500977497184E-19   5.82014610133501E-03   5.82014610133501E-03  -5.08370532296982E-16   1.00000000000000E+00
      1.00000000000000E+00   0.00000000000000E+00   0.00000000000000E+00   0.00000000000000E+00   0.00000000000000E+00
      0.00000000000000E+00   1.08937091106984E-15
      3.93711111111111E-01
      0.00000000000000E+00   0.00000000000000E+00   0.00000000000000E+00   0.00000000000000E+00  -2.83249770406531E-18
     -1.19102174531324E-03  -1.19102174531325E-03   2.91712523778674E-17   0.00000000000000E+00   0.00000000000000E+00
      0.00000000000000E+00   0.00000000000000E+00  -3.89255743845977E-19  -5.01901669784518E-03  -5.01901669784518E-03
     -5.92532386395130E-16   1.18113333333333E+00   1.18113333333333E+00   0.00000000000000E+00   0.00000000000000E+00
      7.23805255741875E-19   6.21003844315843E-03   6.21003844315843E-03  -4.92072757905318E-16   1.00000000000000E+00
      1.00000000000000E+00   0.00000000000000E+00   0.00000000000000E+00   0.00000000000000E+00   0.00000000000000E+00
      0.00000000000000E+00   1.05543389192258E-15
      4.18711111111111E-01
      0.00000000000000E+00   0.00000000000000E+00   0.00000000000000E+00   0.00000000000000E+00  -2.99551447213835E-18
     -1.26329569170418E-03  -1.26329569170419E-03   2.91397519135436E-17   0.00000000000000E+00   0.00000000000000E+00
      0.00000000000000E+00   0.00000000000000E+00  -4.13902366014970E-19  -5.33604078893793E-03  -5.33604078893793E-03
     -5.74879997185682E-16   1.25613333333333E+00   1.25613333333333E+00   0.00000000000000E+00   0.00000000000000E+00
      8.04032260975602E-19   6.59933648064211E-03   6.59933648064211E-03  -4.75791924442426E-16   1.00000000000000E+00
      1.00000000000000E+00   0.00000000000000E+00   0.00000000000000E+00   0.00000000000000E+00   0.00000000000000E+00
      0.00000000000000E+00   1.02153216971456E-15
      4.43711111111111E-01
      0.00000000000000E+00   0.00000000000000E+00   0.00000000000000E+00   0.00000000000000E+00  -3.15667133878500E-18
     -1.33517405583203E-03  -1.33517405583203E-03   2.91085400150508E-17   0.00000000000000E+00   0.00000000000000E+00
      0.00000000000000E+00   0.00000000000000E+00  -4.38518996123165E-19  -5.65286956297849E-03  -5.65286956297849E-03
     -5.57245341361561E-16   1.33113333333333E+00   1.33113333333333E+00   0.00000000000000E+00   0.00000000000000E+00
      8.87926627905610E-19   6.98804361881051E-03   6.98804361881051E-03  -4.59527239489522E-16   1.00000000000000E+00
      1.00000000000000E+00   0.00000000000000E+00   0.00000000000000E+00   0.00000000000000E+00   0.00000000000000E+00
      0.00000000000000E+00   9.87664040836032E-16
      4.68711111111111E-01
      0.00000000000000E+00   0.00000000000000E+00   0.00000000000000E+00   0.00000000000000E+00  -3.31599704030365E-18
     -1.40665923118494E-03  -1.40665923118494E-03   2.90776148550678E-17   0.00000000000000E+00   0.00000000000000E+00
      0.00000000000000E+00   0.00000000000000E+00  -4.63108231102204E-19  -5.96950384423658E-03  -5.96950384423658E-03
     -5.39627544566680E-16   1.40613333333333E+00   1.40613333333333E+00   0.00000000000000E+00   0.00000000000000E+00
      9.75232489380971E-19   7.37616307542152E-03   7.37616307542152E-03  -4.43277944736627E-16   1.00000000000000E+00
      1.00000000000000E+00   0.00000000000000E+00   0.00000000000000E+00   0.00000000000000E+00   0.00000000000000E+00
      0.00000000000000E+00   9.53827874448238E-16
      4.93711111111111E-01
      0.00000000000000E+00   0.00000000000000E+00   0.00000000000000E+00   0.00000000000000E+00  -3.47351994764379E-18
     -1.47775363024839E-03  -1.47775363024839E-03   2.90469745801864E-17   0.00000000000000E+00   0.00000000000000E+00
      0.00000000000000E+00   0.00000000000000E+00  -4.87672215396549E-19  -6.28594418792190E-03  -6.28594418792190E-03
     -5.22025774786358E-16   1.48113333333333E+00   1.48113333333333E+00   0.00000000000000E+00   0.00000000000000E+00
      1.06569818955945E-18   7.76369781817029E-03   7.76369781817029E-03  -4.27043319295269E-16   1.00000000000000E+00
      1.00000000000000E+00   0.00000000000000E+00   0.00000000000000E+00   0.00000000000000E+00   0.00000000000000E+00
      0.00000000000000E+00   9.20022119501441E-16
      5.18711111111111E-01
      0.00000000000000E+00   0.00000000000000E+00   0.00000000000000E+00   0.00000000000000E+00  -3.62926799535388E-18
     -1.54845965476897E-03  -1.54845965476897E-03   2.90166173368972E-17   0.00000000000000E+00   0.00000000000000E+00
      0.00000000000000E+00   0.00000000000000E+00  -5.12212715414386E-19  -6.60219087050863E-03  -6.60219087050863E-03
     -5.04439245141795E-16   1.55613333333333E+00   1.55613333333333E+00   0.00000000000000E+00   0.00000000000000E+00
      1.15907949562962E-18   8.15065052527760E-03   8.15065052527760E-03  -4.10822682121476E-16   1.00000000000000E+00
      1.00000000000000E+00   0.00000000000000E+00   0.00000000000000E+00   0.00000000000000E+00   0.00000000000000E+00
      0.00000000000000E+00   8.86245309926374E-16
      5.43711111111111E-01
      0.00000000000000E+00   0.00000000000000E+00   0.00000000000000E+00   0.00000000000000E+00  -3.78326862805875E-18
     -1.61877967403088E-03  -1.61877967403088E-03   2.89865412818220E-17   0.00000000000000E+00   0.00000000000000E+00
      0.00000000000000E+00   0.00000000000000E+00  -5.36731183582874E-19  -6.91824388874243E-03  -6.91824388874243E-03
     -4.86867214966111E-16   1.63113333333333E+00   1.63113333333333E+00   0.00000000000000E+00   0.00000000000000E+00
      1.25514171005599E-18   8.53702356277331E-03   8.53702356277331E-03  -3.94615392874811E-16   1.00000000000000E+00
      1.00000000000000E+00   0.00000000000000E+00   0.00000000000000E+00   0.00000000000000E+00   0.00000000000000E+00
      0.00000000000000E+00   8.52496066559100E-16
      5.68711111111111E-01
      0.00000000000000E+00   0.00000000000000E+00   0.00000000000000E+00   0.00000000000000E+00  -3.93554876313102E-18
     -1.68871600913850E-03  -1.68871600913851E-03   2.89567445923185E-17   0.00000000000000E+00   0.00000000000000E+00
      0.00000000000000E+00   0.00000000000000E+00  -5.61228812231908E-19  -7.23410296829044E-03  -7.23410296829044E-03
     -4.69308990254789E-16   1.70613333333333E+00   1.70613333333333E+00   0.00000000000000E+00   0.00000000000000E+00
      1.35366099877979E-18   8.92281897742894E-03   8.92281897742894E-03  -3.78420852572032E-16   1.00000000000000E+00
      1.00000000000000E+00   0.00000000000000E+00   0.00000000000000E+00   0.00000000000000E+00   0.00000000000000E+00
      0.00000000000000E+00   8.18773098234502E-16
      5.93711111111111E-01
      0.00000000000000E+00   0.00000000000000E+00   0.00000000000000E+00   0.00000000000000E+00  -4.08613476832063E-18
     -1.75827092274980E-03  -1.75827092274980E-03   2.89272254706529E-17   0.00000000000000E+00   0.00000000000000E+00
      0.00000000000000E+00   0.00000000000000E+00  -5.85706578130024E-19  -7.54976757730562E-03  -7.54976757730562E-03
     -4.51763923248243E-16   1.78113333333333E+00   1.78113333333333E+00   0.00000000000000E+00   0.00000000000000E+00
      1.45442510424323E-18   9.30803850005541E-03   9.30803850005542E-03  -3.62238502801041E-16   1.00000000000000E+00
      1.00000000000000E+00   0.00000000000000E+00   0.00000000000000E+00   0.00000000000000E+00   0.00000000000000E+00
      0.00000000000000E+00   7.85075200578631E-16
      6.18711111111111E-01
      0.00000000000000E+00   0.00000000000000E+00   0.00000000000000E+00   0.00000000000000E+00  -4.23505244976119E-18
     -1.82744661245637E-03  -1.82744661245637E-03   2.88979821578744E-17   0.00000000000000E+00   0.00000000000000E+00
      0.00000000000000E+00   0.00000000000000E+00  -6.10165279535261E-19  -7.86523694980738E-03  -7.86523694980738E-03
     -4.34231412105411E-16   1.85613333333333E+00   1.85613333333333E+00   0.00000000000000E+00   0.00000000000000E+00
      1.55723364719296E-18   9.69268356226374E-03   9.69268356226375E-03  -3.46067825564937E-16   1.00000000000000E+00
      1.00000000000000E+00   0.00000000000000E+00   0.00000000000000E+00   0.00000000000000E+00   0.00000000000000E+00
      0.00000000000000E+00   7.51401255512474E-16
      6.43711111111111E-01
      0.00000000000000E+00   0.00000000000000E+00   0.00000000000000E+00   0.00000000000000E+00  -4.38232705003643E-18
     -1.89624520796949E-03  -1.89624520796950E-03   2.88690129379430E-17   0.00000000000000E+00   0.00000000000000E+00
      0.00000000000000E+00   0.00000000000000E+00  -6.34605565791103E-19  -8.18051010055363E-03  -8.18051010055363E-03
     -4.16710899271842E-16   1.93113333333333E+00   1.93113333333333E+00   0.00000000000000E+00   0.00000000000000E+00
      1.66189812996899E-18   1.00767553085231E-02   1.00767553085231E-02  -3.29908341881884E-16   1.00000000000000E+00
      1.00000000000000E+00   0.00000000000000E+00   0.00000000000000E+00   0.00000000000000E+00   0.00000000000000E+00
      0.00000000000000E+00   7.17750228215782E-16
      6.68711111111111E-01
      0.00000000000000E+00   0.00000000000000E+00   0.00000000000000E+00   0.00000000000000E+00  -4.52798325233068E-18
     -1.96466877053134E-03  -1.96466877053135E-03   2.88403161376866E-17   0.00000000000000E+00   0.00000000000000E+00
      0.00000000000000E+00   0.00000000000000E+00  -6.59027962387762E-19  -8.49558585264352E-03  -8.49558585264352E-03
     -3.99201869892387E-16   2.00613333333333E+00   2.00613333333333E+00   0.00000000000000E+00   0.00000000000000E+00
      1.76824172940759E-18   1.04602546231749E-02   1.04602546231749E-02  -3.13759610306876E-16   1.00000000000000E+00
      1.00000000000000E+00   0.00000000000000E+00   0.00000000000000E+00   0.00000000000000E+00   0.00000000000000E+00
      0.00000000000000E+00   6.84121164061576E-16
      6.93711111111111E-01
      0.00000000000000E+00   0.00000000000000E+00   0.00000000000000E+00   0.00000000000000E+00  -4.67204519018384E-18
     -2.03271929452991E-03  -2.03271929452992E-03   2.88118901250080E-17   0.00000000000000E+00   0.00000000000000E+00
      0.00000000000000E+00   0.00000000000000E+00  -6.83432891109563E-19  -8.81046285887123E-03  -8.81046285887123E-03
     -3.81703849704678E-16   2.08113333333333E+00   2.08113333333333E+00   0.00000000000000E+00   0.00000000000000E+00
      1.87609894880480E-18   1.08431821534011E-02   1.08431821534011E-02  -2.97621225041216E-16   1.00000000000000E+00
      1.00000000000000E+00   0.00000000000000E+00   0.00000000000000E+00   0.00000000000000E+00   0.00000000000000E+00
      0.00000000000000E+00   6.50513184620886E-16
      7.18711111111111E-01
      0.00000000000000E+00   0.00000000000000E+00   0.00000000000000E+00   0.00000000000000E+00  -4.81453646035167E-18
     -2.10039871030263E-03  -2.10039871030264E-03   2.87837333087498E-17   0.00000000000000E+00   0.00000000000000E+00
      0.00000000000000E+00   0.00000000000000E+00  -7.07820686882776E-19  -9.12513962637712E-03  -9.12513962637712E-03
     -3.64216402978988E-16   2.15613333333333E+00   2.15613333333333E+00   0.00000000000000E+00   0.00000000000000E+00
      1.98531519277726E-18   1.12255383366797E-02   1.12255383366797E-02  -2.81492814103041E-16   1.00000000000000E+00
      1.00000000000000E+00   0.00000000000000E+00   0.00000000000000E+00   0.00000000000000E+00   0.00000000000000E+00
      0.00000000000000E+00   6.16925483773277E-16
      7.43711111111111E-01
      0.00000000000000E+00   0.00000000000000E+00   0.00000000000000E+00   0.00000000000000E+00  -4.95548013815293E-18
     -2.16770888795574E-03  -2.16770888795575E-03   2.87558441372499E-17   0.00000000000000E+00   0.00000000000000E+00
      0.00000000000000E+00   0.00000000000000E+00  -7.32191611667443E-19  -9.43961453971976E-03  -9.43961453971976E-03
     -3.46739130340368E-16   2.23113333333333E+00   2.23113333333333E+00   0.00000000000000E+00   0.00000000000000E+00
      2.09574626109999E-18   1.16073234276755E-02   1.16073234276755E-02  -2.65374037380822E-16   1.00000000000000E+00
      1.00000000000000E+00   0.00000000000000E+00   0.00000000000000E+00   0.00000000000000E+00   0.00000000000000E+00
      0.00000000000000E+00   5.83357323583938E-16
      7.68711111111111E-01
      0.00000000000000E+00   0.00000000000000E+00   0.00000000000000E+00   0.00000000000000E+00  -5.09489879436254E-18
     -2.23465164183849E-03  -2.23465164183850E-03   2.87282210962444E-17   0.00000000000000E+00   0.00000000000000E+00
      0.00000000000000E+00   0.00000000000000E+00  -7.56545865969029E-19  -9.75388588243989E-03  -9.75388588243989E-03
     -3.29271666536634E-16   2.30613333333333E+00   2.30613333333333E+00   0.00000000000000E+00   0.00000000000000E+00
      2.20725782392188E-18   1.19885375242784E-02   1.19885375242784E-02  -2.49264584652608E-16   1.00000000000000E+00
      1.00000000000000E+00   0.00000000000000E+00   0.00000000000000E+00   0.00000000000000E+00   0.00000000000000E+00
      0.00000000000000E+00   5.49808030092998E-16
      7.93711111111111E-01
      0.00000000000000E+00   0.00000000000000E+00   0.00000000000000E+00   0.00000000000000E+00  -5.23281451295165E-18
     -2.30122873540892E-03  -2.30122873540893E-03   2.87008627050313E-17   0.00000000000000E+00   0.00000000000000E+00
      0.00000000000000E+00   0.00000000000000E+00  -7.80883598336854E-19  -1.00679518559281E-02  -1.00679518559281E-02
     -3.11813678094323E-16   2.38113333333333E+00   2.38113333333333E+00   0.00000000000000E+00   0.00000000000000E+00
      2.31972488148880E-18   1.23691805913370E-02   1.23691805913370E-02  -2.33164173551860E-16   1.00000000000000E+00
      1.00000000000000E+00   0.00000000000000E+00   0.00000000000000E+00   0.00000000000000E+00   0.00000000000000E+00
      0.00000000000000E+00   5.16276988941149E-16
      8.18711111111112E-01
      0.00000000000000E+00   0.00000000000000E+00   0.00000000000000E+00   0.00000000000000E+00  -5.36924890901147E-18
     -2.36744188621439E-03  -2.36744188621439E-03   2.86737675137448E-17   0.00000000000000E+00   0.00000000000000E+00
      0.00000000000000E+00   0.00000000000000E+00  -8.05204913387440E-19  -1.03818105979319E-02  -1.03818105979319E-02
     -2.94364861138868E-16   2.45613333333333E+00   2.45613333333333E+00   0.00000000000000E+00   0.00000000000000E+00
      2.43303122312612E-18   1.27492524841463E-02   1.27492524841463E-02  -2.17072547667367E-16   1.00000000000000E+00
      1.00000000000000E+00   0.00000000000000E+00   0.00000000000000E+00   0.00000000000000E+00   0.00000000000000E+00
      0.00000000000000E+00   4.82763641292488E-16
      8.43711111111112E-01
      0.00000000000000E+00   0.00000000000000E+00   0.00000000000000E+00   0.00000000000000E+00  -5.50422314661758E-18
     -2.43329277090504E-03  -2.43329277090505E-03   2.86469340996674E-17   0.00000000000000E+00   0.00000000000000E+00
      0.00000000000000E+00   0.00000000000000E+00  -8.29509878479464E-19  -1.06954601986174E-02  -1.06954601986174E-02
     -2.76924939223390E-16   2.53113333333333E+00   2.53113333333333E+00   0.00000000000000E+00   0.00000000000000E+00
      2.54706889426132E-18   1.31287529695224E-02   1.31287529695224E-02  -2.00989474658393E-16   1.00000000000000E+00
      1.00000000000000E+00   0.00000000000000E+00   0.00000000000000E+00   0.00000000000000E+00   0.00000000000000E+00
      0.00000000000000E+00   4.49267479782115E-16
      8.68711111111112E-01
      0.00000000000000E+00   0.00000000000000E+00   0.00000000000000E+00   0.00000000000000E+00  -5.63775795623195E-18