DF-ISE text

Info {
  version   = 1.0
  type      = xyplot
  datasets  = [
    "time"
    "substrate OuterVoltage" "substrate InnerVoltage" "substrate QuasiFermiPotential" "substrate DisplacementCurrent" "substrate eCurrent"
    "substrate hCurrent" "substrate TotalCurrent" "substrate Charge" "source OuterVoltage" "source InnerVoltage"
    "source QuasiFermiPotential" "source DisplacementCurrent" "source eCurrent" "source hCurrent" "source TotalCurrent"
    "source Charge" "drain OuterVoltage" "drain InnerVoltage" "drain QuasiFermiPotential" "drain DisplacementCurrent"
    "drain eCurrent" "drain hCurrent" "drain TotalCurrent" "drain Charge" "gate OuterVoltage"
    "gate InnerVoltage" "gate QuasiFermiPotential" "gate DisplacementCurrent" "gate eCurrent" "gate hCurrent"
    "gate TotalCurrent" "gate Charge" ]
  functions = [
    Time
    OuterVoltage InnerVoltage QuasiFermiPotential DisplacementCurrent eCurrent
    hCurrent TotalCurrent Charge OuterVoltage InnerVoltage
    QuasiFermiPotential DisplacementCurrent eCurrent hCurrent TotalCurrent
    Charge OuterVoltage InnerVoltage QuasiFermiPotential DisplacementCurrent
    eCurrent hCurrent TotalCurrent Charge OuterVoltage
    InnerVoltage QuasiFermiPotential DisplacementCurrent eCurrent hCurrent
    TotalCurrent Charge ]
}

Data {
      0.00000000000000E+00
      0.00000000000000E+00   0.00000000000000E+00   0.00000000000000E+00   0.00000000000000E+00  -2.66024103857532E-17
     -1.60181383267573E-29  -2.66024103857692E-17  -7.60591066679165E-15   0.00000000000000E+00   0.00000000000000E+00
      0.00000000000000E+00   0.00000000000000E+00   1.33319510451080E-17  -7.01509976652909E-29   1.33319510450379E-17
     -1.93381782408619E-15   0.00000000000000E+00   0.00000000000000E+00   0.00000000000000E+00   0.00000000000000E+00
      1.32704593406453E-17   8.60617222108085E-29   1.32704593407313E-17  -1.93381782408619E-15   1.00000000000000E+01
      1.00000000000000E+01   0.00000000000000E+00   0.00000000000000E+00   0.00000000000000E+00   0.00000000000000E+00
      0.00000000000000E+00   1.14735463149640E-14
      1.00000000000000E-02
      0.00000000000000E+00   0.00000000000000E+00   0.00000000000000E+00   0.00000000000000E+00   1.08442974089883E-17
     -1.23960945939953E-16  -1.13116648530964E-16  -7.62389234382789E-15   0.00000000000000E+00   0.00000000000000E+00
      0.00000000000000E+00   0.00000000000000E+00  -3.01225158938788E-04  -2.16231890534300E-23  -3.01225158938788E-04
     -1.93254176743797E-15   3.00000000000000E-02   3.00000000000000E-02   0.00000000000000E+00   0.00000000000000E+00
      3.01225158938901E-04   9.80948181062584E-21   3.01225158938901E-04  -1.89883466188565E-15   1.00000000000000E+01
      1.00000000000000E+01   0.00000000000000E+00   0.00000000000000E+00   0.00000000000000E+00   0.00000000000000E+00
      0.00000000000000E+00   1.14552687731515E-14
      2.33333333333333E-02
      0.00000000000000E+00   0.00000000000000E+00   0.00000000000000E+00   0.00000000000000E+00  -2.58109821456971E-16
     -2.70434321080639E-16  -5.28544142537610E-16  -7.64759374542579E-15   0.00000000000000E+00   0.00000000000000E+00
      0.00000000000000E+00   0.00000000000000E+00  -6.78093258911494E-04  -4.89849305465322E-23  -6.78093258911494E-04
     -1.93105263403535E-15   7.00000000000000E-02   7.00000000000000E-02   0.00000000000000E+00   0.00000000000000E+00
      6.78093258912023E-04   1.31413766034303E-20   6.78093258912023E-04  -1.85226677184445E-15   1.00000000000000E+01
      1.00000000000000E+01   0.00000000000000E+00   0.00000000000000E+00   0.00000000000000E+00   0.00000000000000E+00
      0.00000000000000E+00   1.14309131513056E-14
      4.28888888888889E-02
      0.00000000000000E+00   0.00000000000000E+00   0.00000000000000E+00   0.00000000000000E+00  -3.17107459440816E-18
     -4.44882512300840E-16  -4.48053586895248E-16  -7.68181310159890E-15   0.00000000000000E+00   0.00000000000000E+00
      0.00000000000000E+00   0.00000000000000E+00  -1.18144925810078E-03  -8.50777020280680E-23  -1.18144925810078E-03
     -1.92929206641628E-15   1.28666666666667E-01   1.28666666666667E-01   0.00000000000000E+00   0.00000000000000E+00
      1.18144925810123E-03   1.38989024993864E-20   1.18144925810123E-03  -1.78412149929464E-15   1.00000000000000E+01
      1.00000000000000E+01   0.00000000000000E+00   0.00000000000000E+00   0.00000000000000E+00   0.00000000000000E+00
      0.00000000000000E+00   1.13952266673098E-14
      6.78888888888889E-02
      0.00000000000000E+00   0.00000000000000E+00   0.00000000000000E+00   0.00000000000000E+00   1.47233413279016E-17
     -5.82826792283790E-16  -5.68103450955889E-16  -7.72466972250880E-15   0.00000000000000E+00   0.00000000000000E+00
      0.00000000000000E+00   0.00000000000000E+00  -1.74823544010413E-03  -1.26076953688201E-22  -1.74823544010413E-03
     -1.92770245317673E-15   2.03666666666667E-01   2.03666666666667E-01   0.00000000000000E+00   0.00000000000000E+00
      1.74823544010470E-03   1.42146134414706E-20   1.74823544010470E-03  -1.69730673030003E-15   1.00000000000000E+01
      1.00000000000000E+01   0.00000000000000E+00   0.00000000000000E+00   0.00000000000000E+00   0.00000000000000E+00
      0.00000000000000E+00   1.13496789059855E-14
      9.28888888888889E-02
      0.00000000000000E+00   0.00000000000000E+00   0.00000000000000E+00   0.00000000000000E+00   3.98661262661960E-17
     -6.60810217146149E-16  -6.20944090879953E-16  -7.76657760221149E-15   0.00000000000000E+00   0.00000000000000E+00
      0.00000000000000E+00   0.00000000000000E+00  -2.24070058248880E-03  -1.61736797053707E-22  -2.24070058248880E-03
     -1.92675674476068E-15   2.78666666666667E-01   2.78666666666667E-01   0.00000000000000E+00   0.00000000000000E+00
      2.24070058248942E-03   1.46110989896815E-20   2.24070058248942E-03  -1.61089913832019E-15   1.00000000000000E+01
      1.00000000000000E+01   0.00000000000000E+00   0.00000000000000E+00   0.00000000000000E+00   0.00000000000000E+00
      0.00000000000000E+00   1.13042334852924E-14
      1.17888888888889E-01
      0.00000000000000E+00   0.00000000000000E+00   0.00000000000000E+00   0.00000000000000E+00  -7.88259180332526E-17
     -7.06537729693180E-16  -7.85363647726433E-16  -7.80756579568660E-15   0.00000000000000E+00   0.00000000000000E+00
      0.00000000000000E+00   0.00000000000000E+00  -2.66981246644389E-03  -1.92810921964583E-22  -2.66981246644389E-03
     -1.92636015444710E-15   3.53666666666667E-01   3.53666666666667E-01   0.00000000000000E+00   0.00000000000000E+00
      2.66981246644467E-03   1.49653885630491E-20   2.66981246644467E-03  -1.52498279629302E-15   1.00000000000000E+01
      1.00000000000000E+01   0.00000000000000E+00   0.00000000000000E+00   0.00000000000000E+00   0.00000000000000E+00
      0.00000000000000E+00   1.12589087464267E-14
      1.42888888888889E-01
      0.00000000000000E+00   0.00000000000000E+00   0.00000000000000E+00   0.00000000000000E+00   1.17787011313397E-17
     -7.39433479610644E-16  -7.27654778479304E-16  -7.84765521158182E-15   0.00000000000000E+00   0.00000000000000E+00
      0.00000000000000E+00   0.00000000000000E+00  -3.04480548984606E-03  -2.19946966916408E-22  -3.04480548984606E-03
     -1.92642790255054E-15   4.28666666666667E-01   4.28666666666667E-01   0.00000000000000E+00   0.00000000000000E+00
      3.04480548984679E-03   1.52745609050020E-20   3.04480548984679E-03  -1.43964476572668E-15   1.00000000000000E+01
      1.00000000000000E+01   0.00000000000000E+00   0.00000000000000E+00   0.00000000000000E+00   0.00000000000000E+00
      0.00000000000000E+00   1.12137278798590E-14
      1.67888888888889E-01
      0.00000000000000E+00   0.00000000000000E+00   0.00000000000000E+00   0.00000000000000E+00   1.24582380148946E-17
     -7.69798121733170E-16  -7.57339883718275E-16  -7.88684779686419E-15   0.00000000000000E+00   0.00000000000000E+00
      0.00000000000000E+00   0.00000000000000E+00  -3.37335680196441E-03  -2.43700095802969E-22  -3.37335680196441E-03
     -1.92688420865844E-15   5.03666666666667E-01   5.03666666666667E-01   0.00000000000000E+00   0.00000000000000E+00
      3.37335680196517E-03   1.55444970326193E-20   3.37335680196517E-03  -1.35498031562083E-15   1.00000000000000E+01
      1.00000000000000E+01   0.00000000000000E+00   0.00000000000000E+00   0.00000000000000E+00   0.00000000000000E+00
      0.00000000000000E+00   1.11687123211435E-14
      1.92888888888889E-01
      0.00000000000000E+00   0.00000000000000E+00   0.00000000000000E+00   0.00000000000000E+00   4.89265980498516E-17
     -7.96680075401765E-16  -7.47753477351914E-16  -7.92509597493844E-15   0.00000000000000E+00   0.00000000000000E+00
      0.00000000000000E+00   0.00000000000000E+00  -3.66194589781674E-03  -2.64533712185492E-22  -3.66194589781674E-03
     -1.92766585064165E-15   5.78666666666667E-01   5.78666666666667E-01   0.00000000000000E+00   0.00000000000000E+00
      3.66194589781748E-03   1.57812225737282E-20   3.66194589781748E-03  -1.27112440843907E-15   1.00000000000000E+01
      1.00000000000000E+01   0.00000000000000E+00   0.00000000000000E+00   0.00000000000000E+00   0.00000000000000E+00
      0.00000000000000E+00   1.11238862340192E-14
      2.17888888888889E-01
      0.00000000000000E+00   0.00000000000000E+00   0.00000000000000E+00   0.00000000000000E+00  -8.60733177270459E-18
     -8.17648349753421E-16  -8.26255681526125E-16  -7.96225882382200E-15   0.00000000000000E+00   0.00000000000000E+00
      0.00000000000000E+00   0.00000000000000E+00  -3.91603468590958E-03  -2.82849895386728E-22  -3.91603468590958E-03
     -1.92871908008855E-15   6.53666666666667E-01   6.53666666666667E-01   0.00000000000000E+00   0.00000000000000E+00
      3.91603468591041E-03   1.59892319704493E-20   3.91603468591041E-03  -1.18829361300037E-15   1.00000000000000E+01
      1.00000000000000E+01   0.00000000000000E+00   0.00000000000000E+00   0.00000000000000E+00   0.00000000000000E+00
      0.00000000000000E+00   1.10792715169109E-14
      2.42888888888889E-01
      0.00000000000000E+00   0.00000000000000E+00   0.00000000000000E+00   0.00000000000000E+00  -5.79868463390384E-17
     -8.37384719441034E-16  -8.95371565780073E-16  -7.99807657394470E-15   0.00000000000000E+00   0.00000000000000E+00
      0.00000000000000E+00   0.00000000000000E+00  -4.14028097055537E-03  -2.98990187093620E-22  -4.14028097055537E-03
     -1.92999921290626E-15   7.28666666666667E-01   7.28666666666667E-01   0.00000000000000E+00   0.00000000000000E+00
      4.14028097055626E-03   1.61718297834906E-20   4.14028097055626E-03  -1.10681486171219E-15   1.00000000000000E+01
      1.00000000000000E+01   0.00000000000000E+00   0.00000000000000E+00   0.00000000000000E+00   0.00000000000000E+00
      0.00000000000000E+00   1.10348906485631E-14
      2.67888888888889E-01
      0.00000000000000E+00   0.00000000000000E+00   0.00000000000000E+00   0.00000000000000E+00   2.94466097657334E-17
     -8.60083594387608E-16  -8.30636984621874E-16  -8.03221046820576E-15   0.00000000000000E+00   0.00000000000000E+00
      0.00000000000000E+00   0.00000000000000E+00  -4.33865427804747E-03  -3.13249172480564E-22  -4.33865427804747E-03
     -1.93146837486373E-15   8.03666666666667E-01   8.03666666666667E-01   0.00000000000000E+00   0.00000000000000E+00
      4.33865427804830E-03   1.63322518814455E-20   4.33865427804830E-03  -1.02708655258955E-15   1.00000000000000E+01
      1.00000000000000E+01   0.00000000000000E+00   0.00000000000000E+00   0.00000000000000E+00   0.00000000000000E+00
      0.00000000000000E+00   1.09907653956591E-14
      2.92888888888889E-01
      0.00000000000000E+00   0.00000000000000E+00   0.00000000000000E+00   0.00000000000000E+00   2.85405646680378E-17
     -8.85238662197789E-16  -8.56698097529751E-16  -8.06444432338802E-15   0.00000000000000E+00   0.00000000000000E+00
      0.00000000000000E+00   0.00000000000000E+00  -4.51454668538289E-03  -3.25874466454470E-22  -4.51454668538289E-03
     -1.93309181144957E-15   8.78666666666667E-01   8.78666666666667E-01   0.00000000000000E+00   0.00000000000000E+00
      4.51454668538374E-03   1.64742728676168E-20   4.51454668538374E-03  -9.49382238185307E-16   1.00000000000000E+01
      1.00000000000000E+01   0.00000000000000E+00   0.00000000000000E+00   0.00000000000000E+00   0.00000000000000E+00
      0.00000000000000E+00   1.09469183730229E-14
      3.17888888888889E-01
      0.00000000000000E+00   0.00000000000000E+00   0.00000000000000E+00   0.00000000000000E+00   4.43963734848227E-17
     -9.11960510011228E-16  -8.67564136526406E-16  -8.09496303823256E-15   0.00000000000000E+00   0.00000000000000E+00
      0.00000000000000E+00   0.00000000000000E+00  -4.67084383058919E-03  -3.37078488268841E-22  -4.67084383058919E-03
     -1.93483621373762E-15   9.53666666666667E-01   9.53666666666667E-01   0.00000000000000E+00   0.00000000000000E+00
      4.67084383059006E-03   1.66007236601958E-20   4.67084383059006E-03  -8.73574004757740E-16   1.00000000000000E+01
      1.00000000000000E+01   0.00000000000000E+00   0.00000000000000E+00   0.00000000000000E+00   0.00000000000000E+00
      0.00000000000000E+00   1.09033732567279E-14
      3.42888888888889E-01
      0.00000000000000E+00   0.00000000000000E+00   0.00000000000000E+00   0.00000000000000E+00  -2.12919726237988E-17
     -9.39984098313967E-16  -9.61276070937766E-16  -8.12432810660249E-15   0.00000000000000E+00   0.00000000000000E+00
      0.00000000000000E+00   0.00000000000000E+00  -4.81003505284344E-03  -3.47045053089123E-22  -4.81003505284344E-03
     -1.93667136183602E-15   1.02866666666667E+00   1.02866666666667E+00   0.00000000000000E+00   0.00000000000000E+00
      4.81003505284440E-03   1.67136761985193E-20   4.81003505284440E-03  -7.99150360482617E-16   1.00000000000000E+01
      1.00000000000000E+01   0.00000000000000E+00   0.00000000000000E+00   0.00000000000000E+00   0.00000000000000E+00
      0.00000000000000E+00   1.08601498289211E-14
      3.67888888888889E-01
      0.00000000000000E+00   0.00000000000000E+00   0.00000000000000E+00   0.00000000000000E+00   2.21982440089210E-17
     -9.66503308972691E-16  -9.44305064963770E-16  -8.15312678900144E-15   0.00000000000000E+00   0.00000000000000E+00
      0.00000000000000E+00   0.00000000000000E+00  -4.93425109652934E-03  -3.55929870037779E-22  -4.93425109652934E-03
     -1.93857241811167E-15   1.10366666666667E+00   1.10366666666667E+00   0.00000000000000E+00   0.00000000000000E+00
      4.93425109653029E-03   1.68148105256330E-20   4.93425109653029E-03  -7.25569975176549E-16   1.00000000000000E+01
      1.00000000000000E+01   0.00000000000000E+00   0.00000000000000E+00   0.00000000000000E+00   0.00000000000000E+00
      0.00000000000000E+00   1.08172691822896E-14
      3.92888888888889E-01
      0.00000000000000E+00   0.00000000000000E+00   0.00000000000000E+00   0.00000000000000E+00  -4.53011719508772E-18
     -9.90395175343874E-16  -9.94925292538961E-16  -8.18174681484482E-15   0.00000000000000E+00   0.00000000000000E+00
      0.00000000000000E+00   0.00000000000000E+00  -5.04531796315128E-03  -3.63867308825085E-22  -5.04531796315128E-03
     -1.94052120072899E-15   1.17866666666667E+00   1.17866666666667E+00   0.00000000000000E+00   0.00000000000000E+00
      5.04531796315227E-03   1.69055319321154E-20   5.04531796315227E-03  -6.52487648054070E-16   1.00000000000000E+01
      1.00000000000000E+01   0.00000000000000E+00   0.00000000000000E+00   0.00000000000000E+00   0.00000000000000E+00
      0.00000000000000E+00   1.07747556636279E-14
      4.17888888888889E-01
      0.00000000000000E+00   0.00000000000000E+00   0.00000000000000E+00   0.00000000000000E+00   5.88941427923107E-18
     -1.01259559878709E-15  -1.00670618450786E-15  -8.21037743719112E-15   0.00000000000000E+00   0.00000000000000E+00
      0.00000000000000E+00   0.00000000000000E+00  -5.14486117869342E-03  -3.70975391945712E-22  -5.14486117869342E-03
     -1.94250641600443E-15   1.25366666666667E+00   1.25366666666667E+00   0.00000000000000E+00   0.00000000000000E+00
      5.14486117869442E-03   1.69870872859604E-20   5.14486117869442E-03  -5.79741667317214E-16   1.00000000000000E+01
      1.00000000000000E+01   0.00000000000000E+00   0.00000000000000E+00   0.00000000000000E+00   0.00000000000000E+00
      0.00000000000000E+00   1.07326255205128E-14
      4.42888888888889E-01
      0.00000000000000E+00   0.00000000000000E+00   0.00000000000000E+00   0.00000000000000E+00  -7.24825458856789E-18
     -1.03574547670883E-15  -1.04299373129740E-15  -8.23911976182915E-15   0.00000000000000E+00   0.00000000000000E+00
      0.00000000000000E+00   0.00000000000000E+00  -5.23429042922168E-03  -3.77357322969511E-22  -5.23429042922168E-03
     -1.94452156915577E-15   1.32866666666667E+00   1.32866666666667E+00   0.00000000000000E+00   0.00000000000000E+00
      5.23429042922272E-03   1.70605518951103E-20   5.23429042922272E-03  -5.07253460389078E-16   1.00000000000000E+01
      1.00000000000000E+01   0.00000000000000E+00   0.00000000000000E+00   0.00000000000000E+00   0.00000000000000E+00
      0.00000000000000E+00   1.06908947913740E-14
      4.67888888888889E-01
      0.00000000000000E+00   0.00000000000000E+00   0.00000000000000E+00   0.00000000000000E+00  -2.71802330123642E-18
     -1.06169867679832E-15  -1.06441670009955E-15  -8.26804259559625E-15   0.00000000000000E+00   0.00000000000000E+00
      0.00000000000000E+00   0.00000000000000E+00  -5.31482838917538E-03  -3.83101136828755E-22  -5.31482838917538E-03
     -1.94656246399760E-15   1.40366666666667E+00   1.40366666666667E+00   0.00000000000000E+00   0.00000000000000E+00
      5.31482838917645E-03   1.71268708008245E-20   5.31482838917645E-03  -4.34974026201887E-16   1.00000000000000E+01
      1.00000000000000E+01   0.00000000000000E+00   0.00000000000000E+00   0.00000000000000E+00   0.00000000000000E+00
      0.00000000000000E+00   1.06495790857957E-14
      4.92888888888889E-01
      0.00000000000000E+00   0.00000000000000E+00   0.00000000000000E+00   0.00000000000000E+00   1.08726695850925E-17
     -1.09011392966025E-15  -1.07924126007516E-15  -8.29720348652018E-15   0.00000000000000E+00   0.00000000000000E+00
      0.00000000000000E+00   0.00000000000000E+00  -5.38753976438412E-03  -3.88284729905362E-22  -5.38753976438412E-03
     -1.94862461001666E-15   1.47866666666667E+00   1.47866666666667E+00   0.00000000000000E+00   0.00000000000000E+00
      5.38753976438520E-03   1.71868816937356E-20   5.38753976438520E-03  -3.62863638609467E-16   1.00000000000000E+01
      1.00000000000000E+01   0.00000000000000E+00   0.00000000000000E+00   0.00000000000000E+00   0.00000000000000E+00
      0.00000000000000E+00   1.06086917351463E-14
      5.17888888888889E-01
      0.00000000000000E+00   0.00000000000000E+00   0.00000000000000E+00   0.00000000000000E+00   1.67619700328536E-17
     -1.12153345704945E-15  -1.10477148701660E-15  -8.32665874774336E-15   0.00000000000000E+00   0.00000000000000E+00
      0.00000000000000E+00   0.00000000000000E+00  -5.45335000289413E-03  -3.92974834792008E-22  -5.45335000289413E-03
     -1.95070143789705E-15   1.55366666666667E+00   1.55366666666667E+00   0.00000000000000E+00   0.00000000000000E+00
      5.45335000289524E-03   1.72413218056495E-20   5.45335000289524E-03  -2.90883484697476E-16   1.00000000000000E+01
      1.00000000000000E+01   0.00000000000000E+00   0.00000000000000E+00   0.00000000000000E+00   0.00000000000000E+00
      0.00000000000000E+00   1.05682436703379E-14
      5.42888888888889E-01
      0.00000000000000E+00   0.00000000000000E+00   0.00000000000000E+00   0.00000000000000E+00   2.67284781892888E-17
     -1.16160655849365E-15  -1.13487808030436E-15  -8.35646440356664E-15   0.00000000000000E+00   0.00000000000000E+00
      0.00000000000000E+00   0.00000000000000E+00  -5.51306471957694E-03  -3.97229141350028E-22  -5.51306471957694E-03
     -1.95278435417955E-15   1.62866666666667E+00   1.62866666666667E+00   0.00000000000000E+00   0.00000000000000E+00
      5.51306471957807E-03   1.72908393040866E-20   5.51306471957807E-03  -2.18994625545427E-16   1.00000000000000E+01
      1.00000000000000E+01   0.00000000000000E+00   0.00000000000000E+00   0.00000000000000E+00   0.00000000000000E+00
      0.00000000000000E+00   1.05282433832916E-14
      5.67888888888889E-01
      0.00000000000000E+00   0.00000000000000E+00   0.00000000000000E+00   0.00000000000000E+00   8.60755521800904E-18
     -1.22407008843751E-15  -1.21546253321950E-15  -8.38667169853747E-15   0.00000000000000E+00   0.00000000000000E+00
      0.00000000000000E+00   0.00000000000000E+00  -5.56738920803666E-03  -4.01099073080247E-22  -5.56738920803666E-03
     -1.95486432910129E-15   1.70366666666667E+00   1.70366666666667E+00   0.00000000000000E+00   0.00000000000000E+00
      5.56738920803788E-03   1.73360034301824E-20   5.56738920803788E-03  -1.47160835880005E-16   1.00000000000000E+01
      1.00000000000000E+01   0.00000000000000E+00   0.00000000000000E+00   0.00000000000000E+00   0.00000000000000E+00
      0.00000000000000E+00   1.04886968635188E-14
      5.92888888888889E-01
      0.00000000000000E+00   0.00000000000000E+00   0.00000000000000E+00   0.00000000000000E+00   1.81210402487966E-17
     -1.32153063703431E-15  -1.30340959678551E-15  -8.41732163489280E-15   0.00000000000000E+00   0.00000000000000E+00
      0.00000000000000E+00   0.00000000000000E+00  -5.61694556696613E-03  -4.04629784697557E-22  -5.61694556696613E-03
     -1.95693370726539E-15   1.77866666666667E+00   1.77866666666667E+00   0.00000000000000E+00   0.00000000000000E+00
      5.61694556696744E-03   1.73773168059719E-20   5.61694556696744E-03  -7.53520704650728E-17   1.00000000000000E+01
      1.00000000000000E+01   0.00000000000000E+00   0.00000000000000E+00   0.00000000000000E+00   0.00000000000000E+00
      0.00000000000000E+00   1.04496074126233E-14
      6.17888888888889E-01
      0.00000000000000E+00   0.00000000000000E+00   0.00000000000000E+00   0.00000000000000E+00  -1.44966213880558E-17
     -1.43593663210016E-15  -1.45043325348822E-15  -8.44844149541600E-15   0.00000000000000E+00   0.00000000000000E+00
      0.00000000000000E+00   0.00000000000000E+00  -5.66228565256634E-03  -4.07859930963648E-22  -5.66228565256634E-03
     -1.95898725691755E-15   1.85366666666667E+00   1.85366666666667E+00   0.00000000000000E+00   0.00000000000000E+00
      5.66228565256779E-03   1.74152236916404E-20   5.66228565256779E-03  -3.54677339499662E-18   1.00000000000000E+01
      1.00000000000000E+01   0.00000000000000E+00   0.00000000000000E+00   0.00000000000000E+00   0.00000000000000E+00
      0.00000000000000E+00   1.04109755257285E-14
      6.42888888888889E-01
      0.00000000000000E+00   0.00000000000000E+00   0.00000000000000E+00   0.00000000000000E+00  -2.62752212513174E-17
     -1.52867272293749E-15  -1.55494794418880E-15  -8.48004422647178E-15   0.00000000000000E+00   0.00000000000000E+00
      0.00000000000000E+00   0.00000000000000E+00  -5.70390024657590E-03  -4.10825258081968E-22  -5.70390024657590E-03
     -1.96102234761464E-15   1.92866666666667E+00   1.92866666666667E+00   0.00000000000000E+00   0.00000000000000E+00
      5.70390024657746E-03   1.74501196354807E-20   5.70390024657746E-03   6.82676370958989E-17   1.00000000000000E+01
      1.00000000000000E+01   0.00000000000000E+00   0.00000000000000E+00   0.00000000000000E+00   0.00000000000000E+00
      0.00000000000000E+00   1.03727989369905E-14
      6.67888888888889E-01
      0.00000000000000E+00   0.00000000000000E+00   0.00000000000000E+00   0.00000000000000E+00  -3.21645210572380E-17
     -1.58901902081531E-15  -1.62118354187255E-15  -8.51213009700738E-15   0.00000000000000E+00   0.00000000000000E+00
      0.00000000000000E+00   0.00000000000000E+00  -5.74222575402593E-03  -4.13557229539980E-22  -5.74222575402593E-03
     -1.96303857323226E-15   2.00366666666667E+00   2.00366666666667E+00   0.00000000000000E+00   0.00000000000000E+00
      5.74222575402755E-03   1.74823555648110E-20   5.74222575402755E-03   1.40095910931455E-16   1.00000000000000E+01
      1.00000000000000E+01   0.00000000000000E+00   0.00000000000000E+00   0.00000000000000E+00   0.00000000000000E+00
      0.00000000000000E+00   1.03350727593082E-14
      6.92888888888889E-01
      0.00000000000000E+00   0.00000000000000E+00   0.00000000000000E+00   0.00000000000000E+00  -3.17104353786992E-18
     -1.62662054529230E-15  -1.62979158883017E-15  -8.54468954054300E-15   0.00000000000000E+00   0.00000000000000E+00
      0.00000000000000E+00   0.00000000000000E+00  -5.77764940579395E-03  -4.16082814868566E-22  -5.77764940579395E-03
     -1.96503711132705E-15   2.07866666666667E+00   2.07866666666667E+00   0.00000000000000E+00   0.00000000000000E+00
      5.77764940579558E-03   1.75122430099989E-20   5.77764940579558E-03   2.11936969254246E-16   1.00000000000000E+01
      1.00000000000000E+01   0.00000000000000E+00   0.00000000000000E+00   0.00000000000000E+00   0.00000000000000E+00
      0.00000000000000E+00   1.02977896826158E-14
      7.17888888888889E-01
      0.00000000000000E+00   0.00000000000000E+00   0.00000000000000E+00   0.00000000000000E+00   1.22317415016179E-17
     -1.64926010176793E-15  -1.63702836026631E-15  -8.57770624694953E-15   0.00000000000000E+00   0.00000000000000E+00
      0.00000000000000E+00   0.00000000000000E+00  -5.81051350174984E-03  -4.18427250318463E-22  -5.81051350174984E-03
     -1.96701999190617E-15   2.15366666666667E+00   2.15366666666667E+00   0.00000000000000E+00   0.00000000000000E+00
      5.81051350175147E-03   1.75400573313740E-20   5.81051350175147E-03   2.83785980448745E-16   1.00000000000000E+01
      1.00000000000000E+01   0.00000000000000E+00   0.00000000000000E+00   0.00000000000000E+00   0.00000000000000E+00
      0.00000000000000E+00   1.02609402584069E-14
      7.42888888888889E-01
      0.00000000000000E+00   0.00000000000000E+00   0.00000000000000E+00   0.00000000000000E+00  -2.71801998285531E-18
     -1.66335999338844E-15  -1.66607801337129E-15  -8.61115989840983E-15   0.00000000000000E+00   0.00000000000000E+00
      0.00000000000000E+00   0.00000000000000E+00  -5.84111915925698E-03  -4.20611402576538E-22  -5.84111915925698E-03
     -1.96898941678755E-15   2.22866666666667E+00   2.22866666666667E+00   0.00000000000000E+00   0.00000000000000E+00
      5.84111915925865E-03   1.75660408044498E-20   5.84111915925865E-03   3.55636091583254E-16   1.00000000000000E+01
      1.00000000000000E+01   0.00000000000000E+00   0.00000000000000E+00   0.00000000000000E+00   0.00000000000000E+00
      0.00000000000000E+00   1.02245132236141E-14
      7.67888888888889E-01
      0.00000000000000E+00   0.00000000000000E+00   0.00000000000000E+00   0.00000000000000E+00   2.85405729188448E-17
     -1.67442437542663E-15  -1.64588380250779E-15  -8.64502808919580E-15   0.00000000000000E+00   0.00000000000000E+00
      0.00000000000000E+00   0.00000000000000E+00  -5.86972998774241E-03  -4.22654251049387E-22  -5.86972998774241E-03
     -1.97094728690919E-15   2.30366666666667E+00   2.30366666666667E+00   0.00000000000000E+00   0.00000000000000E+00
      5.86972998774405E-03   1.75904055695408E-20   5.86972998774405E-03   4.27479556741386E-16   1.00000000000000E+01
      1.00000000000000E+01   0.00000000000000E+00   0.00000000000000E+00   0.00000000000000E+00   0.00000000000000E+00
      0.00000000000000E+00   1.01884958193636E-14
      7.92888888888889E-01
      0.00000000000000E+00   0.00000000000000E+00   0.00000000000000E+00   0.00000000000000E+00   4.07732668975151E-18
     -1.68554958882167E-15  -1.68147226213192E-15  -8.67928719657655E-15   0.00000000000000E+00   0.00000000000000E+00
      0.00000000000000E+00   0.00000000000000E+00  -5.89657595650249E-03  -4.24572976874916E-22  -5.89657595650249E-03
     -1.97289505360576E-15   2.37866666666667E+00   2.37866666666667E+00   0.00000000000000E+00   0.00000000000000E+00
      5.89657595650417E-03   1.76133368646049E-20   5.89657595650417E-03   4.99308165787168E-16   1.00000000000000E+01
      1.00000000000000E+01   0.00000000000000E+00   0.00000000000000E+00   0.00000000000000E+00   0.00000000000000E+00
      0.00000000000000E+00   1.01528740843951E-14
      8.17888888888889E-01
      0.00000000000000E+00   0.00000000000000E+00   0.00000000000000E+00   0.00000000000000E+00   9.63412478707349E-14
     -1.69782567323337E-15   9.46434221975016E-14  -8.71391240663471E-15   0.00000000000000E+00   0.00000000000000E+00
      0.00000000000000E+00   0.00000000000000E+00  -5.92185741373240E-03  -4.26370866328924E-22  -5.92185741373240E-03
     -1.97483386596042E-15   2.45366666666667E+00   2.45366666666667E+00   0.00000000000000E+00   0.00000000000000E+00
      5.92185741363776E-03   1.76142160601899E-20   5.92185741363776E-03   5.71113160566513E-16   1.00000000000000E+01
      1.00000000000000E+01   0.00000000000000E+00   0.00000000000000E+00   0.00000000000000E+00   0.00000000000000E+00
      0.00000000000000E+00   1.01176331120286E-14
      8.42888888888889E-01
      0.00000000000000E+00   0.00000000000000E+00   0.00000000000000E+00   0.00000000000000E+00   7.88196741167446E-14
     -1.71190508629121E-15   7.71077690304534E-14  -8.74887741267564E-15   0.00000000000000E+00   0.00000000000000E+00
      0.00000000000000E+00   0.00000000000000E+00  -5.94574895186712E-03  -4.28082554653064E-22  -5.94574895186712E-03
     -1.97676484370852E-15   2.52866666666667E+00   2.52866666666667E+00   0.00000000000000E+00   0.00000000000000E+00
      5.94574895179001E-03   1.76409248593778E-20   5.94574895179001E-03   6.42884995579155E-16   1.00000000000000E+01
      1.00000000000000E+01   0.00000000000000E+00   0.00000000000000E+00   0.00000000000000E+00   0.00000000000000E+00
      0.00000000000000E+00   1.00827572608050E-14
      8.67888888888889E-01
      0.00000000000000E+00   0.00000000000000E+00   0.00000000000000E+00   0.00000000000000E+00   6.12097608616996E-14