DF-ISE text

Info {
  version   = 1.0
  type      = xyplot
  datasets  = [
    "time"
    "substrate OuterVoltage" "substrate InnerVoltage" "substrate QuasiFermiPotential" "substrate DisplacementCurrent" "substrate eCurrent"
    "substrate hCurrent" "substrate TotalCurrent" "substrate Charge" "source OuterVoltage" "source InnerVoltage"
    "source QuasiFermiPotential" "source DisplacementCurrent" "source eCurrent" "source hCurrent" "source TotalCurrent"
    "source Charge" "drain OuterVoltage" "drain InnerVoltage" "drain QuasiFermiPotential" "drain DisplacementCurrent"
    "drain eCurrent" "drain hCurrent" "drain TotalCurrent" "drain Charge" "gate OuterVoltage"
    "gate InnerVoltage" "gate QuasiFermiPotential" "gate DisplacementCurrent" "gate eCurrent" "gate hCurrent"
    "gate TotalCurrent" "gate Charge" ]
  functions = [
    Time
    OuterVoltage InnerVoltage QuasiFermiPotential DisplacementCurrent eCurrent
    hCurrent TotalCurrent Charge OuterVoltage InnerVoltage
    QuasiFermiPotential DisplacementCurrent eCurrent hCurrent TotalCurrent
    Charge OuterVoltage InnerVoltage QuasiFermiPotential DisplacementCurrent
    eCurrent hCurrent TotalCurrent Charge OuterVoltage
    InnerVoltage QuasiFermiPotential DisplacementCurrent eCurrent hCurrent
    TotalCurrent Charge ]
}

Data {
      0.00000000000000E+00
      0.00000000000000E+00   0.00000000000000E+00   0.00000000000000E+00   0.00000000000000E+00   4.31689374440136E-17
     -2.53341778559650E-28   4.31689374437603E-17  -7.03960953122138E-15   0.00000000000000E+00   0.00000000000000E+00
      0.00000000000000E+00   0.00000000000000E+00  -2.35458726415013E-17   1.08838192791504E-28  -2.35458726413924E-17
     -1.60765465299989E-15   0.00000000000000E+00   0.00000000000000E+00   0.00000000000000E+00   0.00000000000000E+00
     -1.96230648025125E-17   1.44681288411543E-28  -1.96230648023679E-17  -1.60765465299989E-15   9.00000000000000E+00
      9.00000000000000E+00   0.00000000000000E+00   0.00000000000000E+00   0.00000000000000E+00   0.00000000000000E+00
      0.00000000000000E+00   1.02549188372212E-14
      1.00000000000000E-02
      0.00000000000000E+00   0.00000000000000E+00   0.00000000000000E+00   0.00000000000000E+00  -3.96337912114982E-19
     -1.23931904596822E-16  -1.24328242508937E-16  -7.05759851188666E-15   0.00000000000000E+00   0.00000000000000E+00
      0.00000000000000E+00   0.00000000000000E+00  -2.85814340171339E-04  -2.05201429531943E-23  -2.85814340171339E-04
     -1.60648325560289E-15   3.00000000000000E-02   3.00000000000000E-02   0.00000000000000E+00   0.00000000000000E+00
      2.85814340171463E-04   9.80146877155702E-21   2.85814340171463E-04  -1.57256739116554E-15   9.00000000000000E+00
      9.00000000000000E+00   0.00000000000000E+00   0.00000000000000E+00   0.00000000000000E+00   0.00000000000000E+00
      0.00000000000000E+00   1.02366491586551E-14
      2.33333333333333E-02
      0.00000000000000E+00   0.00000000000000E+00   0.00000000000000E+00   0.00000000000000E+00   4.97645935296173E-16
     -2.70336577043526E-16   2.27309358252647E-16  -7.08131102899668E-15   0.00000000000000E+00   0.00000000000000E+00
      0.00000000000000E+00   0.00000000000000E+00  -6.41717563951242E-04  -4.63880293391706E-23  -6.41717563951242E-04
     -1.60513586972311E-15   7.00000000000000E-02   7.00000000000000E-02   0.00000000000000E+00   0.00000000000000E+00
      6.41717563951015E-04   1.31166291858095E-20   6.41717563951015E-04  -1.52585886482255E-15   9.00000000000000E+00
      9.00000000000000E+00   0.00000000000000E+00   0.00000000000000E+00   0.00000000000000E+00   0.00000000000000E+00
      0.00000000000000E+00   1.02123057635423E-14
      4.28888888888889E-02
      0.00000000000000E+00   0.00000000000000E+00   0.00000000000000E+00   0.00000000000000E+00   2.68417040456109E-17
     -4.44611808257126E-16  -4.17770104211516E-16  -7.11555164327867E-15   0.00000000000000E+00   0.00000000000000E+00
      0.00000000000000E+00   0.00000000000000E+00  -1.11372449276310E-03  -8.02153185935751E-23  -1.11372449276310E-03
     -1.60358490054278E-15   1.28666666666667E-01   1.28666666666667E-01   0.00000000000000E+00   0.00000000000000E+00
      1.11372449276351E-03   1.38498056726658E-20   1.11372449276351E-03  -1.45750540117744E-15   9.00000000000000E+00
      9.00000000000000E+00   0.00000000000000E+00   0.00000000000000E+00   0.00000000000000E+00   0.00000000000000E+00
      0.00000000000000E+00   1.01766419449989E-14
      6.78888888888889E-02
      0.00000000000000E+00   0.00000000000000E+00   0.00000000000000E+00   0.00000000000000E+00  -3.43164081624961E-17
     -5.82222289570527E-16  -6.16538697733024E-16  -7.15844962246019E-15   0.00000000000000E+00   0.00000000000000E+00
      0.00000000000000E+00   0.00000000000000E+00  -1.64002643711690E-03  -1.18301276159436E-22  -1.64002643711690E-03
     -1.60225930291574E-15   2.03666666666667E-01   2.03666666666667E-01   0.00000000000000E+00   0.00000000000000E+00
      1.64002643711752E-03   1.41344272115900E-20   1.64002643711752E-03  -1.37042546099935E-15   9.00000000000000E+00
      9.00000000000000E+00   0.00000000000000E+00   0.00000000000000E+00   0.00000000000000E+00   0.00000000000000E+00
      0.00000000000000E+00   1.01311343863753E-14
      9.28888888888889E-02
      0.00000000000000E+00   0.00000000000000E+00   0.00000000000000E+00   0.00000000000000E+00   1.20052056477740E-17
     -6.59832869827802E-16  -6.47827664180028E-16  -7.20042273083246E-15   0.00000000000000E+00   0.00000000000000E+00
      0.00000000000000E+00   0.00000000000000E+00  -2.09227749000660E-03  -1.51072510203858E-22  -2.09227749000660E-03
     -1.60156500372175E-15   2.78666666666667E-01   2.78666666666667E-01   0.00000000000000E+00   0.00000000000000E+00
      2.09227749000724E-03   1.44996080072552E-20   2.09227749000724E-03  -1.28375834429830E-15   9.00000000000000E+00
      9.00000000000000E+00   0.00000000000000E+00   0.00000000000000E+00   0.00000000000000E+00   0.00000000000000E+00
      0.00000000000000E+00   1.00857460788525E-14
      1.17888888888889E-01
      0.00000000000000E+00   0.00000000000000E+00   0.00000000000000E+00   0.00000000000000E+00  -3.85059916580477E-18
     -7.05200842556855E-16  -7.09051441722660E-16  -7.24151017496457E-15   0.00000000000000E+00   0.00000000000000E+00
      0.00000000000000E+00   0.00000000000000E+00  -2.48207197539544E-03  -1.79330493363256E-22  -2.48207197539544E-03
     -1.60139984200906E-15   3.53666666666667E-01   3.53666666666667E-01   0.00000000000000E+00   0.00000000000000E+00
      2.48207197539615E-03   1.48226543939808E-20   2.48207197539615E-03  -1.19759142155563E-15   9.00000000000000E+00
      9.00000000000000E+00   0.00000000000000E+00   0.00000000000000E+00   0.00000000000000E+00   0.00000000000000E+00
      0.00000000000000E+00   1.00405014385293E-14
      1.42888888888889E-01
      0.00000000000000E+00   0.00000000000000E+00   0.00000000000000E+00   0.00000000000000E+00   2.03861382696724E-17
     -7.37797511517826E-16  -7.17411373248153E-16  -7.28174108136996E-15   0.00000000000000E+00   0.00000000000000E+00
      0.00000000000000E+00   0.00000000000000E+00  -2.81907754469355E-03  -2.03756649242646E-22  -2.81907754469355E-03
     -1.60167375296189E-15   4.28666666666667E-01   4.28666666666667E-01   0.00000000000000E+00   0.00000000000000E+00
      2.81907754469427E-03   1.51012838352088E-20   2.81907754469427E-03  -1.11201315755855E-15   9.00000000000000E+00
      9.00000000000000E+00   0.00000000000000E+00   0.00000000000000E+00   0.00000000000000E+00   0.00000000000000E+00
      0.00000000000000E+00   9.99542799189038E-15
      1.67888888888889E-01
      0.00000000000000E+00   0.00000000000000E+00   0.00000000000000E+00   0.00000000000000E+00   1.31377710618026E-17
     -7.67829600712434E-16  -7.54691829650631E-16  -7.32112656056127E-15   0.00000000000000E+00   0.00000000000000E+00
      0.00000000000000E+00   0.00000000000000E+00  -3.11128641202184E-03  -2.24928057406801E-22  -3.11128641202184E-03
     -1.60230725715534E-15   5.03666666666667E-01   5.03666666666667E-01   0.00000000000000E+00   0.00000000000000E+00
      3.11128641202260E-03   1.53416806735241E-20   3.11128641202260E-03  -1.02711895559944E-15   9.00000000000000E+00
      9.00000000000000E+00   0.00000000000000E+00   0.00000000000000E+00   0.00000000000000E+00   0.00000000000000E+00
      0.00000000000000E+00   9.95055277331603E-15
      1.92888888888889E-01
      0.00000000000000E+00   0.00000000000000E+00   0.00000000000000E+00   0.00000000000000E+00  -2.08389583347234E-17
     -7.94291800614100E-16  -8.15130758948824E-16  -7.35962756907008E-15   0.00000000000000E+00   0.00000000000000E+00
      0.00000000000000E+00   0.00000000000000E+00  -3.36537020927450E-03  -2.43321573064852E-22  -3.36537020927450E-03
     -1.60323418172919E-15   5.78666666666667E-01   5.78666666666667E-01   0.00000000000000E+00   0.00000000000000E+00
      3.36537020927531E-03   1.55501274252765E-20   3.36537020927531E-03  -9.43043298906610E-16   9.00000000000000E+00
      9.00000000000000E+00   0.00000000000000E+00   0.00000000000000E+00   0.00000000000000E+00   0.00000000000000E+00
      0.00000000000000E+00   9.90590504970587E-15
      2.17888888888889E-01
      0.00000000000000E+00   0.00000000000000E+00   0.00000000000000E+00   0.00000000000000E+00  -8.15431051885822E-18
     -8.14921843799924E-16  -8.23076154318782E-16  -7.39711011709928E-15   0.00000000000000E+00   0.00000000000000E+00
      0.00000000000000E+00   0.00000000000000E+00  -3.58690169853404E-03  -2.59343316810060E-22  -3.58690169853404E-03
     -1.60439992711562E-15   6.53666666666667E-01   6.53666666666667E-01   0.00000000000000E+00   0.00000000000000E+00
      3.58690169853486E-03   1.57312729768536E-20   3.58690169853486E-03  -8.60002280915167E-16   9.00000000000000E+00
      9.00000000000000E+00   0.00000000000000E+00   0.00000000000000E+00   0.00000000000000E+00   0.00000000000000E+00
      0.00000000000000E+00   9.86151232513007E-15
      2.42888888888889E-01
      0.00000000000000E+00   0.00000000000000E+00   0.00000000000000E+00   0.00000000000000E+00   1.35917550880049E-18
     -8.34578047306351E-16  -8.33218871797550E-16  -7.43331889069333E-15   0.00000000000000E+00   0.00000000000000E+00
      0.00000000000000E+00   0.00000000000000E+00  -3.78056987544657E-03  -2.73337351171925E-22  -3.78056987544657E-03
     -1.60576020580749E-15   7.28666666666667E-01   7.28666666666667E-01   0.00000000000000E+00   0.00000000000000E+00
      3.78056987544740E-03   1.58884988109098E-20   3.78056987544740E-03  -7.78322268833790E-16   9.00000000000000E+00
      9.00000000000000E+00   0.00000000000000E+00   0.00000000000000E+00   0.00000000000000E+00   0.00000000000000E+00
      0.00000000000000E+00   9.81740136533460E-15
      2.67888888888889E-01
      0.00000000000000E+00   0.00000000000000E+00   0.00000000000000E+00   0.00000000000000E+00  -1.67617466565685E-17
     -8.57343483228863E-16  -8.74105229885431E-16  -7.46792165025914E-15   0.00000000000000E+00   0.00000000000000E+00
      0.00000000000000E+00   0.00000000000000E+00  -3.95033578501078E-03  -2.85593525815460E-22  -3.95033578501078E-03
     -1.60727771316081E-15   8.03666666666667E-01   8.03666666666667E-01   0.00000000000000E+00   0.00000000000000E+00
      3.95033578501165E-03   1.60250689992749E-20   3.95033578501165E-03  -6.98399688579545E-16   9.00000000000000E+00
      9.00000000000000E+00   0.00000000000000E+00   0.00000000000000E+00   0.00000000000000E+00   0.00000000000000E+00
      0.00000000000000E+00   9.77359905199949E-15
      2.92888888888889E-01
      0.00000000000000E+00   0.00000000000000E+00   0.00000000000000E+00   0.00000000000000E+00   2.40103317337238E-17
     -8.82537948449592E-16  -8.58527616715868E-16  -7.50070854405769E-15   0.00000000000000E+00   0.00000000000000E+00
      0.00000000000000E+00   0.00000000000000E+00  -4.09954386799839E-03  -2.96356543349597E-22  -4.09954386799839E-03
     -1.60891973780408E-15   8.78666666666667E-01   8.78666666666667E-01   0.00000000000000E+00   0.00000000000000E+00
      4.09954386799925E-03   1.61447571209298E-20   4.09954386799925E-03  -6.20502979825759E-16   9.00000000000000E+00
      9.00000000000000E+00   0.00000000000000E+00   0.00000000000000E+00   0.00000000000000E+00   0.00000000000000E+00
      0.00000000000000E+00   9.73013126168753E-15
      3.17888888888889E-01
      0.00000000000000E+00   0.00000000000000E+00   0.00000000000000E+00   0.00000000000000E+00  -1.85738371415398E-17
     -9.09210587638332E-16  -9.27784424779872E-16  -7.53187256102283E-15   0.00000000000000E+00   0.00000000000000E+00
      0.00000000000000E+00   0.00000000000000E+00  -4.23100936734381E-03  -3.05833101820503E-22  -4.23100936734381E-03
     -1.61065536134707E-15   9.53666666666667E-01   9.53666666666667E-01   0.00000000000000E+00   0.00000000000000E+00
      4.23100936734474E-03   1.62503686322767E-20   4.23100936734474E-03  -5.44496448485500E-16   9.00000000000000E+00
      9.00000000000000E+00   0.00000000000000E+00   0.00000000000000E+00   0.00000000000000E+00   0.00000000000000E+00
      0.00000000000000E+00   9.68702437085540E-15
      3.42888888888889E-01
      0.00000000000000E+00   0.00000000000000E+00   0.00000000000000E+00   0.00000000000000E+00   9.51359471887327E-18
     -9.36970070847517E-16  -9.27456476128644E-16  -7.56198346880535E-15   0.00000000000000E+00   0.00000000000000E+00
      0.00000000000000E+00   0.00000000000000E+00  -4.34713101292096E-03  -3.14198046171510E-22  -4.34713101292096E-03
     -1.61245692754137E-15   1.02866666666667E+00   1.02866666666667E+00   0.00000000000000E+00   0.00000000000000E+00
      4.34713101292188E-03   1.63439165377969E-20   4.34713101292188E-03  -4.69862337606424E-16   9.00000000000000E+00
      9.00000000000000E+00   0.00000000000000E+00   0.00000000000000E+00   0.00000000000000E+00   0.00000000000000E+00
      0.00000000000000E+00   9.64430273395313E-15
      3.67888888888889E-01
      0.00000000000000E+00   0.00000000000000E+00   0.00000000000000E+00   0.00000000000000E+00  -3.71477820870986E-17
     -9.62986585612183E-16  -1.00013436769928E-15  -7.59163011169369E-15   0.00000000000000E+00   0.00000000000000E+00
      0.00000000000000E+00   0.00000000000000E+00  -4.44995474758083E-03  -3.21601455434943E-22  -4.44995474758083E-03
     -1.61430214335292E-15   1.10366666666667E+00   1.10366666666667E+00   0.00000000000000E+00   0.00000000000000E+00
      4.44995474758183E-03   1.64270264738737E-20   4.44995474758183E-03  -3.96056374763956E-16   9.00000000000000E+00
      9.00000000000000E+00   0.00000000000000E+00   0.00000000000000E+00   0.00000000000000E+00   0.00000000000000E+00
      0.00000000000000E+00   9.60198862981056E-15
      3.92888888888889E-01
      0.00000000000000E+00   0.00000000000000E+00   0.00000000000000E+00   0.00000000000000E+00  -4.48491738887493E-17
     -9.86453371455420E-16  -1.03130254534417E-15  -7.62119047819141E-15   0.00000000000000E+00   0.00000000000000E+00
      0.00000000000000E+00   0.00000000000000E+00  -4.54123638287031E-03  -3.28170379123297E-22  -4.54123638287031E-03
     -1.61617544470712E-15   1.17866666666667E+00   1.17866666666667E+00   0.00000000000000E+00   0.00000000000000E+00
      4.54123638287134E-03   1.65010526765322E-20   4.54123638287134E-03  -3.22736967052253E-16   9.00000000000000E+00
      9.00000000000000E+00   0.00000000000000E+00   0.00000000000000E+00   0.00000000000000E+00   0.00000000000000E+00
      0.00000000000000E+00   9.56010288995079E-15
      4.17888888888889E-01
      0.00000000000000E+00   0.00000000000000E+00   0.00000000000000E+00   0.00000000000000E+00   2.71825028543098E-18
     -1.00859557563428E-15  -1.00587732534885E-15  -7.65087372913614E-15   0.00000000000000E+00   0.00000000000000E+00
      0.00000000000000E+00   0.00000000000000E+00  -4.62247032235410E-03  -3.34014495608136E-22  -4.62247032235410E-03
     -1.61806739101299E-15   1.25366666666667E+00   1.25366666666667E+00   0.00000000000000E+00   0.00000000000000E+00
      4.62247032235510E-03   1.65671356345790E-20   4.62247032235510E-03  -2.49729271631400E-16   9.00000000000000E+00
      9.00000000000000E+00   0.00000000000000E+00   0.00000000000000E+00   0.00000000000000E+00   0.00000000000000E+00
      0.00000000000000E+00   9.51867039178051E-15
      4.42888888888889E-01
      0.00000000000000E+00   0.00000000000000E+00   0.00000000000000E+00   0.00000000000000E+00  -2.89933650007327E-17
     -1.03196151799062E-15  -1.06095488299135E-15  -7.68076940921484E-15   0.00000000000000E+00   0.00000000000000E+00
      0.00000000000000E+00   0.00000000000000E+00  -4.69499755309231E-03  -3.39230869749360E-22  -4.69499755309231E-03
     -1.61997403350167E-15   1.32866666666667E+00   1.32866666666667E+00   0.00000000000000E+00   0.00000000000000E+00
      4.69499755309337E-03   1.66262995533685E-20   4.69499755309337E-03  -1.76957697298019E-16   9.00000000000000E+00
      9.00000000000000E+00   0.00000000000000E+00   0.00000000000000E+00   0.00000000000000E+00   0.00000000000000E+00
      0.00000000000000E+00   9.47770114001452E-15
      4.67888888888889E-01
      0.00000000000000E+00   0.00000000000000E+00   0.00000000000000E+00   0.00000000000000E+00   2.26522810282702E-18
     -1.05813073920867E-15  -1.05586551110585E-15  -7.71094509239997E-15   0.00000000000000E+00   0.00000000000000E+00
      0.00000000000000E+00   0.00000000000000E+00  -4.75995404440211E-03  -3.43901577502448E-22  -4.75995404440211E-03
     -1.62189358662061E-15   1.40366666666667E+00   1.40366666666667E+00   0.00000000000000E+00   0.00000000000000E+00
      4.75995404440317E-03   1.66794194732093E-20   4.75995404440317E-03  -1.04370200864638E-16   9.00000000000000E+00
      9.00000000000000E+00   0.00000000000000E+00   0.00000000000000E+00   0.00000000000000E+00   0.00000000000000E+00
      0.00000000000000E+00   9.43720887988522E-15
      4.92888888888889E-01
      0.00000000000000E+00   0.00000000000000E+00   0.00000000000000E+00   0.00000000000000E+00   3.48828904102544E-17
     -1.08659593330281E-15  -1.05171304289256E-15  -7.74145390670011E-15   0.00000000000000E+00   0.00000000000000E+00
      0.00000000000000E+00   0.00000000000000E+00  -4.81832379741151E-03  -3.48098409030219E-22  -4.81832379741151E-03
     -1.62382428180908E-15   1.47866666666667E+00   1.47866666666667E+00   0.00000000000000E+00   0.00000000000000E+00
      4.81832379741257E-03   1.67272678018106E-20   4.81832379741257E-03  -3.19253846765398E-17   9.00000000000000E+00
      9.00000000000000E+00   0.00000000000000E+00   0.00000000000000E+00   0.00000000000000E+00   0.00000000000000E+00
      0.00000000000000E+00   9.39720357318572E-15
      5.17888888888889E-01
      0.00000000000000E+00   0.00000000000000E+00   0.00000000000000E+00   0.00000000000000E+00  -2.98994100129435E-17
     -1.11787832049874E-15  -1.14777773051168E-15  -7.77234502072399E-15   0.00000000000000E+00   0.00000000000000E+00
      0.00000000000000E+00   0.00000000000000E+00  -4.87095597499534E-03  -3.51882565182807E-22  -4.87095597499534E-03
     -1.62576255635619E-15   1.55366666666667E+00   1.55366666666667E+00   0.00000000000000E+00   0.00000000000000E+00
      4.87095597499649E-03   1.67705200080555E-20   4.87095597499649E-03   4.04160226576988E-17   9.00000000000000E+00
      9.00000000000000E+00   0.00000000000000E+00   0.00000000000000E+00   0.00000000000000E+00   0.00000000000000E+00
      0.00000000000000E+00   9.35769155442248E-15
      5.42888888888889E-01
      0.00000000000000E+00   0.00000000000000E+00   0.00000000000000E+00   0.00000000000000E+00   1.58559216170427E-17
     -1.15780576384964E-15  -1.14194984223260E-15  -7.80366507922356E-15   0.00000000000000E+00   0.00000000000000E+00
      0.00000000000000E+00   0.00000000000000E+00  -4.91858330340540E-03  -3.55307365240313E-22  -4.91858330340540E-03
     -1.62770285387901E-15   1.62866666666667E+00   1.62866666666667E+00   0.00000000000000E+00   0.00000000000000E+00
      4.91858330340654E-03   1.68097655873260E-20   4.91858330340654E-03   1.12692406764633E-16   9.00000000000000E+00
      9.00000000000000E+00   0.00000000000000E+00   0.00000000000000E+00   0.00000000000000E+00   0.00000000000000E+00
      0.00000000000000E+00   9.31867552633793E-15
      5.67888888888889E-01
      0.00000000000000E+00   0.00000000000000E+00   0.00000000000000E+00   0.00000000000000E+00   2.08391758183146E-17
     -1.22041599759236E-15  -1.19957682177405E-15  -7.83545445343496E-15   0.00000000000000E+00   0.00000000000000E+00
      0.00000000000000E+00   0.00000000000000E+00  -4.96184079630082E-03  -3.58418074721176E-22  -4.96184079630082E-03
     -1.62963888827702E-15   1.70366666666667E+00   1.70366666666667E+00   0.00000000000000E+00   0.00000000000000E+00
      4.96184079630202E-03   1.68455160995526E-20   4.96184079630202E-03   1.84938705454007E-16   9.00000000000000E+00
      9.00000000000000E+00   0.00000000000000E+00   0.00000000000000E+00   0.00000000000000E+00   0.00000000000000E+00
      0.00000000000000E+00   9.28015463625796E-15
      5.92888888888889E-01
      0.00000000000000E+00   0.00000000000000E+00   0.00000000000000E+00   0.00000000000000E+00  -6.34220883881484E-18
     -1.31828192175910E-15  -1.32462413059791E-15  -7.86774226533455E-15   0.00000000000000E+00   0.00000000000000E+00
      0.00000000000000E+00   0.00000000000000E+00  -5.00128226267159E-03  -3.61255098920734E-22  -5.00128226267159E-03
     -1.63156526064050E-15   1.77866666666667E+00   1.77866666666667E+00   0.00000000000000E+00   0.00000000000000E+00
      5.00128226267291E-03   1.68782173479629E-20   5.00128226267291E-03   2.57183029558233E-16   9.00000000000000E+00
      9.00000000000000E+00   0.00000000000000E+00   0.00000000000000E+00   0.00000000000000E+00   0.00000000000000E+00
      0.00000000000000E+00   9.24212449641681E-15
      6.17888888888889E-01
      0.00000000000000E+00   0.00000000000000E+00   0.00000000000000E+00   0.00000000000000E+00  -1.49496471318993E-17
     -1.43282987619921E-15  -1.44777952333110E-15  -7.90054319795963E-15   0.00000000000000E+00   0.00000000000000E+00
      0.00000000000000E+00   0.00000000000000E+00  -5.03739293251754E-03  -3.63854165773393E-22  -5.03739293251754E-03
     -1.63347848260929E-15   1.85366666666667E+00   1.85366666666667E+00   0.00000000000000E+00   0.00000000000000E+00
      5.03739293251898E-03   1.69082582531535E-20   5.03739293251898E-03   3.29444336936069E-16   9.00000000000000E+00
      9.00000000000000E+00   0.00000000000000E+00   0.00000000000000E+00   0.00000000000000E+00   0.00000000000000E+00
      0.00000000000000E+00   9.20457734363283E-15
      6.42888888888889E-01
      0.00000000000000E+00   0.00000000000000E+00   0.00000000000000E+00   0.00000000000000E+00   2.44633612896394E-17
     -1.52538765192526E-15  -1.50092429063562E-15  -7.93385721926265E-15   0.00000000000000E+00   0.00000000000000E+00
      0.00000000000000E+00   0.00000000000000E+00  -5.07059857624721E-03  -3.66244224570498E-22  -5.07059857624721E-03
     -1.63537721694017E-15   1.92866666666667E+00   1.92866666666667E+00   0.00000000000000E+00   0.00000000000000E+00
      5.07059857624871E-03   1.69359795394451E-20   5.07059857624871E-03   4.01731980123517E-16   9.00000000000000E+00
      9.00000000000000E+00   0.00000000000000E+00   0.00000000000000E+00   0.00000000000000E+00   0.00000000000000E+00
      0.00000000000000E+00   9.16750245607930E-15
      6.67888888888889E-01
      0.00000000000000E+00   0.00000000000000E+00   0.00000000000000E+00   0.00000000000000E+00   1.94801076356055E-17
     -1.58546378733124E-15  -1.56598367969563E-15  -7.96767157523166E-15   0.00000000000000E+00   0.00000000000000E+00
      0.00000000000000E+00   0.00000000000000E+00  -5.10127207376111E-03  -3.68453286988878E-22  -5.10127207376111E-03
     -1.63726198138776E-15   2.00366666666667E+00   2.00366666666667E+00   0.00000000000000E+00   0.00000000000000E+00
      5.10127207376267E-03   1.69616787831322E-20   5.10127207376267E-03   4.74046941140233E-16   9.00000000000000E+00
      9.00000000000000E+00   0.00000000000000E+00   0.00000000000000E+00   0.00000000000000E+00   0.00000000000000E+00
      0.00000000000000E+00   9.13088661547918E-15
      6.92888888888889E-01
      0.00000000000000E+00   0.00000000000000E+00   0.00000000000000E+00   0.00000000000000E+00   5.30038159676209E-17
     -1.62261690152031E-15  -1.56961308555269E-15  -8.00196402386061E-15   0.00000000000000E+00   0.00000000000000E+00
      0.00000000000000E+00   0.00000000000000E+00  -5.12973874858026E-03  -3.70504386385666E-22  -5.12973874858026E-03
     -1.63913459264855E-15   2.07866666666667E+00   2.07866666666667E+00   0.00000000000000E+00   0.00000000000000E+00
      5.12973874858183E-03   1.69856154278990E-20   5.12973874858183E-03   5.46383960918192E-16   9.00000000000000E+00
      9.00000000000000E+00   0.00000000000000E+00   0.00000000000000E+00   0.00000000000000E+00   0.00000000000000E+00
      0.00000000000000E+00   9.09471465559096E-15
      7.17888888888889E-01
      0.00000000000000E+00   0.00000000000000E+00   0.00000000000000E+00   0.00000000000000E+00  -5.57217235518861E-17
     -1.64465884379948E-15  -1.70038056735137E-15  -8.03670622826064E-15   0.00000000000000E+00   0.00000000000000E+00
      0.00000000000000E+00   0.00000000000000E+00  -5.15628089393492E-03  -3.72417779515018E-22  -5.15628089393492E-03
     -1.64099751370864E-15   2.15366666666667E+00   2.15366666666667E+00   0.00000000000000E+00   0.00000000000000E+00
      5.15628089393662E-03   1.70080143237251E-20   5.15628089393662E-03   6.18733749658689E-16   9.00000000000000E+00
      9.00000000000000E+00   0.00000000000000E+00   0.00000000000000E+00   0.00000000000000E+00   0.00000000000000E+00
      0.00000000000000E+00   9.05896999231059E-15
      7.42888888888889E-01
      0.00000000000000E+00   0.00000000000000E+00   0.00000000000000E+00   0.00000000000000E+00   8.60755436011601E-18
     -1.65812898407757E-15  -1.64952142971746E-15  -8.07186667525726E-15   0.00000000000000E+00   0.00000000000000E+00
      0.00000000000000E+00   0.00000000000000E+00  -5.18114194942705E-03  -3.74211078319191E-22  -5.18114194942705E-03
     -1.64285323179640E-15   2.22866666666667E+00   2.22866666666667E+00   0.00000000000000E+00   0.00000000000000E+00
      5.18114194942870E-03   1.70290692048610E-20   5.18114194942870E-03   6.91084850576779E-16   9.00000000000000E+00
      9.00000000000000E+00   0.00000000000000E+00   0.00000000000000E+00   0.00000000000000E+00   0.00000000000000E+00
      0.00000000000000E+00   9.02363505647689E-15
      7.67888888888889E-01
      0.00000000000000E+00   0.00000000000000E+00   0.00000000000000E+00   0.00000000000000E+00   9.51360074293837E-18
     -1.66868476064006E-15  -1.65917115989712E-15  -8.10741266951951E-15   0.00000000000000E+00   0.00000000000000E+00
      0.00000000000000E+00   0.00000000000000E+00  -5.20453064950389E-03  -3.75898861265873E-22  -5.20453064950389E-03
     -1.64470380584591E-15   2.30366666666667E+00   2.30366666666667E+00   0.00000000000000E+00   0.00000000000000E+00
      5.20453064950555E-03   1.70489460839849E-20   5.20453064950555E-03   7.63424901504318E-16   9.00000000000000E+00
      9.00000000000000E+00   0.00000000000000E+00   0.00000000000000E+00   0.00000000000000E+00   0.00000000000000E+00
      0.00000000000000E+00   8.98869157386109E-15
      7.92888888888889E-01
      0.00000000000000E+00   0.00000000000000E+00   0.00000000000000E+00   0.00000000000000E+00  -2.76342917937120E-17
     -1.67974661928166E-15  -1.70738091107537E-15  -8.14331118930340E-15   0.00000000000000E+00   0.00000000000000E+00
      0.00000000000000E+00   0.00000000000000E+00  -5.22662531050661E-03  -3.77494963590928E-22  -5.22662531050661E-03
     -1.64655070045834E-15   2.37866666666667E+00   2.37866666666667E+00   0.00000000000000E+00   0.00000000000000E+00
      5.22662531050831E-03   1.70677867356575E-20   5.22662531050831E-03   8.35741182960410E-16   9.00000000000000E+00
      9.00000000000000E+00   0.00000000000000E+00   0.00000000000000E+00   0.00000000000000E+00   0.00000000000000E+00
      0.00000000000000E+00   8.95412070680132E-15
      8.17888888888889E-01
      0.00000000000000E+00   0.00000000000000E+00   0.00000000000000E+00   0.00000000000000E+00   9.76450482988758E-14
     -1.69254413483876E-15   9.59525041640371E-14  -8.17952881545858E-15   0.00000000000000E+00   0.00000000000000E+00
      0.00000000000000E+00   0.00000000000000E+00  -5.24757815615744E-03  -3.79000386847885E-22  -5.24757815615744E-03
     -1.64839490930395E-15   2.45366666666667E+00   2.45366666666667E+00   0.00000000000000E+00   0.00000000000000E+00
      5.24757815606149E-03   1.70639468302387E-20   5.24757815606149E-03   9.08020604426431E-16   9.00000000000000E+00
      9.00000000000000E+00   0.00000000000000E+00   0.00000000000000E+00   0.00000000000000E+00   0.00000000000000E+00
      0.00000000000000E+00   8.91990312033610E-15
      8.42888888888889E-01
      0.00000000000000E+00   0.00000000000000E+00   0.00000000000000E+00   0.00000000000000E+00   6.61776119793021E-14
     -1.70736917745161E-15   6.44702428018505E-14  -8.21603124898143E-15   0.00000000000000E+00   0.00000000000000E+00
      0.00000000000000E+00   0.00000000000000E+00  -5.26751933529744E-03  -3.80444668749669E-22  -5.26751933529744E-03
     -1.65023723033617E-15   2.52866666666667E+00   2.52866666666667E+00   0.00000000000000E+00   0.00000000000000E+00
      5.26751933523297E-03   1.70894209129743E-20   5.26751933523297E-03   9.80249412297317E-16   9.00000000000000E+00
      9.00000000000000E+00   0.00000000000000E+00   0.00000000000000E+00   0.00000000000000E+00   0.00000000000000E+00
      0.00000000000000E+00   8.88601906702027E-15
      8.67888888888889E-01
      0.00000000000000E+00   0.00000000000000E+00   0.00000000000000E+00   0.00000000000000E+00   4.28922255491788E-14