DF-ISE text

Info {
  version   = 1.0
  type      = xyplot
  datasets  = [
    "time"
    "substrate OuterVoltage" "substrate InnerVoltage" "substrate QuasiFermiPotential" "substrate DisplacementCurrent" "substrate eCurrent"
    "substrate hCurrent" "substrate TotalCurrent" "substrate Charge" "source OuterVoltage" "source InnerVoltage"
    "source QuasiFermiPotential" "source DisplacementCurrent" "source eCurrent" "source hCurrent" "source TotalCurrent"
    "source Charge" "drain OuterVoltage" "drain InnerVoltage" "drain QuasiFermiPotential" "drain DisplacementCurrent"
    "drain eCurrent" "drain hCurrent" "drain TotalCurrent" "drain Charge" "gate OuterVoltage"
    "gate InnerVoltage" "gate QuasiFermiPotential" "gate DisplacementCurrent" "gate eCurrent" "gate hCurrent"
    "gate TotalCurrent" "gate Charge" ]
  functions = [
    Time
    OuterVoltage InnerVoltage QuasiFermiPotential DisplacementCurrent eCurrent
    hCurrent TotalCurrent Charge OuterVoltage InnerVoltage
    QuasiFermiPotential DisplacementCurrent eCurrent hCurrent TotalCurrent
    Charge OuterVoltage InnerVoltage QuasiFermiPotential DisplacementCurrent
    eCurrent hCurrent TotalCurrent Charge OuterVoltage
    InnerVoltage QuasiFermiPotential DisplacementCurrent eCurrent hCurrent
    TotalCurrent Charge ]
}

Data {
      0.00000000000000E+00
      0.00000000000000E+00   0.00000000000000E+00   0.00000000000000E+00   0.00000000000000E+00  -1.32588206225202E-34
     -4.47278790806450E-17  -4.47278790806450E-17   3.32634294694053E-17   0.00000000000000E+00   0.00000000000000E+00
      0.00000000000000E+00   0.00000000000000E+00   3.18981799130485E-35   1.88954015098232E-17   1.88954015098232E-17
     -3.23541661007597E-16   0.00000000000000E+00   0.00000000000000E+00   0.00000000000000E+00   0.00000000000000E+00
     -1.84069297806582E-36   2.58324775708219E-17   2.58324775708219E-17  -2.80791156877412E-16   0.00000000000000E+00
      0.00000000000000E+00   0.00000000000000E+00   0.00000000000000E+00   0.00000000000000E+00   0.00000000000000E+00
      0.00000000000000E+00   5.71069388415604E-16
      1.00000000000000E-02
      0.00000000000000E+00   0.00000000000000E+00   0.00000000000000E+00   0.00000000000000E+00  -2.51323359277483E-20
     -3.80523293858691E-05  -3.80523293858691E-05   3.32726221307578E-17   0.00000000000000E+00   0.00000000000000E+00
      0.00000000000000E+00   0.00000000000000E+00  -4.20583905488374E-21  -4.44852519374626E-04  -4.44852519374626E-04
     -3.16162504626338E-16   3.00000000000000E-02   3.00000000000000E-02   0.00000000000000E+00   0.00000000000000E+00
      4.66085219115074E-21   4.82904848760495E-04   4.82904848760495E-04  -2.73252205468379E-16   0.00000000000000E+00
      0.00000000000000E+00   0.00000000000000E+00   0.00000000000000E+00   0.00000000000000E+00   0.00000000000000E+00
      0.00000000000000E+00   5.56142087963960E-16
      2.36666666666667E-02
      0.00000000000000E+00   0.00000000000000E+00   0.00000000000000E+00   0.00000000000000E+00  -8.15017773566904E-20
     -8.99792792487117E-05  -8.99792792487118E-05   3.32852407621424E-17   0.00000000000000E+00   0.00000000000000E+00
      0.00000000000000E+00   0.00000000000000E+00  -1.00653944477098E-20  -1.05265662490860E-03  -1.05265662490860E-03
     -3.06082638716207E-16   7.10000000000000E-02   7.10000000000000E-02   0.00000000000000E+00   0.00000000000000E+00
      1.11540484114980E-20   1.14263590415731E-03   1.14263590415731E-03  -2.62953604776417E-16   0.00000000000000E+00
      0.00000000000000E+00   0.00000000000000E+00   0.00000000000000E+00   0.00000000000000E+00   0.00000000000000E+00
      0.00000000000000E+00   5.35751002730482E-16
      4.37111111111111E-02
      0.00000000000000E+00   0.00000000000000E+00   0.00000000000000E+00   0.00000000000000E+00  -2.29129304592376E-19
     -1.65946864683266E-04  -1.65946864683266E-04   3.33038773360160E-17   0.00000000000000E+00   0.00000000000000E+00
      0.00000000000000E+00   0.00000000000000E+00  -1.88774892218937E-20  -1.94370254464769E-03  -1.94370254464769E-03
     -2.91309093914999E-16   1.31133333333333E-01   1.31133333333333E-01   0.00000000000000E+00   0.00000000000000E+00
      2.16640791326922E-20   2.10964940933095E-03   2.10964940933095E-03  -2.47858610437753E-16   0.00000000000000E+00
      0.00000000000000E+00   0.00000000000000E+00   0.00000000000000E+00   0.00000000000000E+00   0.00000000000000E+00
      0.00000000000000E+00   5.05863827016736E-16
      6.87111111111111E-02
      0.00000000000000E+00   0.00000000000000E+00   0.00000000000000E+00   0.00000000000000E+00  -5.12200663598785E-19
     -2.60340315939388E-04  -2.60340315939388E-04   3.33273532455694E-17   0.00000000000000E+00   0.00000000000000E+00
      0.00000000000000E+00   0.00000000000000E+00  -3.01782437276317E-20  -3.05429287187372E-03  -3.05429287187372E-03
     -2.72899971230356E-16   2.06133333333333E-01   2.06133333333333E-01   0.00000000000000E+00   0.00000000000000E+00
      3.86538685650983E-20   3.31463318781311E-03   3.31463318781311E-03  -2.29047623423667E-16   0.00000000000000E+00
      0.00000000000000E+00   0.00000000000000E+00   0.00000000000000E+00   0.00000000000000E+00   0.00000000000000E+00
      0.00000000000000E+00   4.68620241408454E-16
      9.37111111111111E-02
      0.00000000000000E+00   0.00000000000000E+00   0.00000000000000E+00   0.00000000000000E+00  -8.13545851473176E-19
     -3.54308438392459E-04  -3.54308438392460E-04   3.33511004903754E-17   0.00000000000000E+00   0.00000000000000E+00
      0.00000000000000E+00   0.00000000000000E+00  -4.16907545547144E-20  -4.16398049576760E-03  -4.16398049576760E-03
     -2.54509271694895E-16   2.81133333333333E-01   2.81133333333333E-01   0.00000000000000E+00   0.00000000000000E+00
      6.17558842640524E-20   4.51828893416006E-03   4.51828893416006E-03  -2.10254134229855E-16   0.00000000000000E+00
      0.00000000000000E+00   0.00000000000000E+00   0.00000000000000E+00   0.00000000000000E+00   0.00000000000000E+00
      0.00000000000000E+00   4.31412305434374E-16
      1.18711111111111E-01
      0.00000000000000E+00   0.00000000000000E+00   0.00000000000000E+00   0.00000000000000E+00  -1.07808824674953E-18
     -4.47827994290192E-04  -4.47827994290193E-04   3.33751294382638E-17   0.00000000000000E+00   0.00000000000000E+00
      0.00000000000000E+00   0.00000000000000E+00  -5.32869007495159E-20  -5.27270690966857E-03  -5.27270690966857E-03
     -2.36136664227439E-16   3.56133333333333E-01   3.56133333333333E-01   0.00000000000000E+00   0.00000000000000E+00
      9.13955035366367E-20   5.72053490395876E-03   5.72053490395876E-03  -1.91477923603160E-16   0.00000000000000E+00
      0.00000000000000E+00   0.00000000000000E+00   0.00000000000000E+00   0.00000000000000E+00   0.00000000000000E+00
      0.00000000000000E+00   3.94239458392336E-16
      1.43711111111111E-01
      0.00000000000000E+00   0.00000000000000E+00   0.00000000000000E+00   0.00000000000000E+00  -1.31514046772966E-18
     -5.40881645108242E-04  -5.40881645108243E-04   3.33994476622923E-17   0.00000000000000E+00   0.00000000000000E+00
      0.00000000000000E+00   0.00000000000000E+00  -6.49066243696747E-20  -6.38042555735886E-03  -6.38042555735886E-03
     -2.17781789445066E-16   4.31133333333333E-01   4.31133333333333E-01   0.00000000000000E+00   0.00000000000000E+00
      1.28184947094981E-19   6.92130720246710E-03   6.92130720246710E-03  -1.72718735152377E-16   0.00000000000000E+00
      0.00000000000000E+00   0.00000000000000E+00   0.00000000000000E+00   0.00000000000000E+00   0.00000000000000E+00
      0.00000000000000E+00   3.57101076935151E-16
      1.68711111111111E-01
      0.00000000000000E+00   0.00000000000000E+00   0.00000000000000E+00   0.00000000000000E+00  -1.53960742970878E-18
     -6.33455934303472E-04  -6.33455934303474E-04   3.34240608958777E-17   0.00000000000000E+00   0.00000000000000E+00
      0.00000000000000E+00   0.00000000000000E+00  -7.65239266247078E-20  -7.48709775023199E-03  -7.48709775023199E-03
     -1.99444255817815E-16   5.06133333333333E-01   5.06133333333333E-01   0.00000000000000E+00   0.00000000000000E+00
      1.72871512363893E-19   8.12055368453546E-03   8.12055368453546E-03  -1.53976277095178E-16   0.00000000000000E+00
      0.00000000000000E+00   0.00000000000000E+00   0.00000000000000E+00   0.00000000000000E+00   0.00000000000000E+00
      0.00000000000000E+00   3.19996472017115E-16
      1.93711111111111E-01
      0.00000000000000E+00   0.00000000000000E+00   0.00000000000000E+00   0.00000000000000E+00  -1.75817556582278E-18
     -7.25540204309137E-04  -7.25540204309139E-04   3.34489739750173E-17   0.00000000000000E+00   0.00000000000000E+00
      0.00000000000000E+00   0.00000000000000E+00  -8.81249419740603E-20  -8.59269008462903E-03  -8.59269008462903E-03
     -1.81123661033994E-16   5.81133333333333E-01   5.81133333333333E-01   0.00000000000000E+00   0.00000000000000E+00
      2.25889946193570E-19   9.31823028893817E-03   9.31823028893817E-03  -1.35250206300814E-16   0.00000000000000E+00
      0.00000000000000E+00   0.00000000000000E+00   0.00000000000000E+00   0.00000000000000E+00   0.00000000000000E+00
      0.00000000000000E+00   2.82924893359791E-16
      2.18711111111111E-01
      0.00000000000000E+00   0.00000000000000E+00   0.00000000000000E+00   0.00000000000000E+00  -1.97305158735977E-18
     -8.17125936609432E-04  -8.17125936609434E-04   3.34741929971410E-17   0.00000000000000E+00   0.00000000000000E+00
      0.00000000000000E+00   0.00000000000000E+00  -9.97023176712656E-20  -9.69717039496061E-03  -9.69717039496061E-03
     -1.62819669456290E-16   6.56133333333333E-01   6.56133333333333E-01   0.00000000000000E+00   0.00000000000000E+00
      2.87310419039659E-19   1.05142963315700E-02   1.05142963315700E-02  -1.16540057643008E-16   0.00000000000000E+00
      0.00000000000000E+00   0.00000000000000E+00   0.00000000000000E+00   0.00000000000000E+00   0.00000000000000E+00
      0.00000000000000E+00   2.45885534102157E-16
      2.43711111111111E-01
      0.00000000000000E+00   0.00000000000000E+00   0.00000000000000E+00   0.00000000000000E+00  -2.18488704896458E-18
     -9.08206331469974E-04  -9.08206331469976E-04   3.34997183093013E-17   0.00000000000000E+00   0.00000000000000E+00
      0.00000000000000E+00   0.00000000000000E+00  -1.11253078186882E-19  -1.08005155196993E-02  -1.08005155196993E-02
     -1.44531692656614E-16   7.31133333333333E-01   7.31133333333333E-01   0.00000000000000E+00   0.00000000000000E+00
      3.56931055486313E-19   1.17087218511693E-02   1.17087218511693E-02  -9.78455038802016E-17   0.00000000000000E+00
      0.00000000000000E+00   0.00000000000000E+00   0.00000000000000E+00   0.00000000000000E+00   0.00000000000000E+00
      0.00000000000000E+00   2.08877478227515E-16
      2.68711111111111E-01
      0.00000000000000E+00   0.00000000000000E+00   0.00000000000000E+00   0.00000000000000E+00  -2.39387892740489E-18
     -9.98775949953746E-04  -9.98775949953748E-04   3.35255517786018E-17   0.00000000000000E+00   0.00000000000000E+00
      0.00000000000000E+00   0.00000000000000E+00  -1.22776871172473E-19  -1.19027046639635E-02  -1.19027046639635E-02
     -1.26259212932116E-16   8.06133333333333E-01   8.06133333333333E-01   0.00000000000000E+00   0.00000000000000E+00
      4.34371115533276E-19   1.29014806139172E-02   1.29014806139172E-02  -7.91661483325591E-17   0.00000000000000E+00
      0.00000000000000E+00   0.00000000000000E+00   0.00000000000000E+00   0.00000000000000E+00   0.00000000000000E+00
      0.00000000000000E+00   1.71899809486073E-16
      2.93711111111111E-01
      0.00000000000000E+00   0.00000000000000E+00   0.00000000000000E+00   0.00000000000000E+00  -2.60010276004807E-18
     -1.08883050514693E-03  -1.08883050514693E-03   3.35516948874365E-17   0.00000000000000E+00   0.00000000000000E+00
      0.00000000000000E+00   0.00000000000000E+00  -1.34274712332127E-19  -1.30037183874098E-02  -1.30037183874098E-02
     -1.08001692985662E-16   8.81133333333333E-01   8.81133333333333E-01   0.00000000000000E+00   0.00000000000000E+00
      5.19140006814450E-19   1.40925488925567E-02   1.40925488925567E-02  -6.05015529232384E-17   0.00000000000000E+00
      0.00000000000000E+00   0.00000000000000E+00   0.00000000000000E+00   0.00000000000000E+00   0.00000000000000E+00
      0.00000000000000E+00   1.34951551021463E-16
      3.18711111111111E-01
      0.00000000000000E+00   0.00000000000000E+00   0.00000000000000E+00   0.00000000000000E+00  -2.80360366429039E-18
     -1.17836667131213E-03  -1.17836667131213E-03   3.35781485443370E-17   0.00000000000000E+00   0.00000000000000E+00
      0.00000000000000E+00   0.00000000000000E+00  -1.45748202952523E-19  -1.41035393479804E-02  -1.41035393479804E-02
     -8.97585714234306E-17   9.56133333333333E-01   9.56133333333333E-01   0.00000000000000E+00   0.00000000000000E+00
      6.10686321497493E-19   1.52819060192926E-02   1.52819060192926E-02  -4.18512591281593E-17   0.00000000000000E+00
      0.00000000000000E+00   0.00000000000000E+00   0.00000000000000E+00   0.00000000000000E+00   0.00000000000000E+00
      0.00000000000000E+00   9.80316820072527E-17
      3.43711111111111E-01
      0.00000000000000E+00   0.00000000000000E+00   0.00000000000000E+00   0.00000000000000E+00  -3.00441988904453E-18
     -1.26738192943795E-03  -1.26738192943796E-03   3.36049132649700E-17   0.00000000000000E+00   0.00000000000000E+00
      0.00000000000000E+00   0.00000000000000E+00  -1.57199086641185E-19  -1.52021520035783E-02  -1.52021520035783E-02
     -7.15292674385999E-17   1.03113333333333E+00   1.03113333333333E+00   0.00000000000000E+00   0.00000000000000E+00
      7.08432696645815E-19   1.64695339330163E-02   1.64695339330163E-02  -2.32148014672003E-17   0.00000000000000E+00
      0.00000000000000E+00   0.00000000000000E+00   0.00000000000000E+00   0.00000000000000E+00   0.00000000000000E+00
      0.00000000000000E+00   6.11391556408306E-17
      3.68711111111111E-01
      0.00000000000000E+00   0.00000000000000E+00   0.00000000000000E+00   0.00000000000000E+00  -3.20258861734140E-18
     -1.35587442360407E-03  -1.35587442360407E-03   3.36319915242325E-17   0.00000000000000E+00   0.00000000000000E+00
      0.00000000000000E+00   0.00000000000000E+00  -1.68629011389260E-19  -1.62995405367553E-02  -1.62995405367553E-02
     -5.33132332890949E-17   1.10613333333333E+00   1.10613333333333E+00   0.00000000000000E+00   0.00000000000000E+00
      8.11800293396331E-19   1.76554149603594E-02   1.76554149603594E-02  -4.59171503586893E-18   0.00000000000000E+00
      0.00000000000000E+00   0.00000000000000E+00   0.00000000000000E+00   0.00000000000000E+00   0.00000000000000E+00
      0.00000000000000E+00   2.42729568007318E-17
      3.93711111111111E-01
      0.00000000000000E+00   0.00000000000000E+00   0.00000000000000E+00   0.00000000000000E+00  -3.39814737384293E-18
     -1.44384290104932E-03  -1.44384290104932E-03   3.36593875195210E-17   0.00000000000000E+00   0.00000000000000E+00
      0.00000000000000E+00   0.00000000000000E+00  -1.80039416708956E-19  -1.73956865954750E-02  -1.73956865954750E-02
     -3.51101384712267E-17   1.18113333333333E+00   1.18113333333333E+00   0.00000000000000E+00   0.00000000000000E+00
      9.20225464770923E-19   1.88395294965243E-02   1.88395294965243E-02   1.40187386108110E-17   0.00000000000000E+00
      0.00000000000000E+00   0.00000000000000E+00   0.00000000000000E+00   0.00000000000000E+00   0.00000000000000E+00
      0.00000000000000E+00  -1.25679876591052E-17
      4.18711111111111E-01
      0.00000000000000E+00   0.00000000000000E+00   0.00000000000000E+00   0.00000000000000E+00  -3.59113425240279E-18
     -1.53128665502695E-03  -1.53128665502695E-03   3.36870962780724E-17   0.00000000000000E+00   0.00000000000000E+00
      0.00000000000000E+00   0.00000000000000E+00  -1.91431615026007E-19  -1.84905793942180E-02  -1.84905793942180E-02
     -1.69191868432244E-17   1.25613333333333E+00   1.25613333333333E+00   0.00000000000000E+00   0.00000000000000E+00
      1.03317104553890E-18   2.00218660492450E-02   2.00218660492450E-02   3.26169849541196E-17   0.00000000000000E+00
      0.00000000000000E+00   0.00000000000000E+00   0.00000000000000E+00   0.00000000000000E+00   0.00000000000000E+00
      0.00000000000000E+00  -4.93848943889675E-17
      4.43711111111111E-01
      0.00000000000000E+00   0.00000000000000E+00   0.00000000000000E+00   0.00000000000000E+00  -3.78158753707958E-18
     -1.61820533218558E-03  -1.61820533218559E-03   3.37151165840614E-17   0.00000000000000E+00   0.00000000000000E+00
      0.00000000000000E+00   0.00000000000000E+00  -2.02806752683458E-19  -1.95842112832315E-02  -1.95842112832315E-02
      1.26027759200178E-18   1.33113333333333E+00   1.33113333333333E+00   0.00000000000000E+00   0.00000000000000E+00
      1.15013273331120E-18   2.12024166154171E-02   2.12024166154171E-02   5.12034199507398E-17   0.00000000000000E+00
      0.00000000000000E+00   0.00000000000000E+00   0.00000000000000E+00   0.00000000000000E+00   0.00000000000000E+00
      0.00000000000000E+00  -8.61788141268030E-17
      4.68711111111111E-01
      0.00000000000000E+00   0.00000000000000E+00   0.00000000000000E+00   0.00000000000000E+00  -3.96954567982299E-18
     -1.70459893324413E-03  -1.70459893324413E-03   3.37434485649066E-17   0.00000000000000E+00   0.00000000000000E+00
      0.00000000000000E+00   0.00000000000000E+00  -2.14165778096977E-19  -2.06765727675461E-02  -2.06765727675461E-02
      1.94287989104893E-17   1.40613333333333E+00   1.40613333333333E+00   0.00000000000000E+00   0.00000000000000E+00
      1.27064219495261E-18   2.23811717007902E-02   2.23811717007902E-02   6.97785208089729E-17   0.00000000000000E+00
      0.00000000000000E+00   0.00000000000000E+00   0.00000000000000E+00   0.00000000000000E+00   0.00000000000000E+00
      0.00000000000000E+00  -1.22950768284369E-16
      4.93711111111111E-01
      0.00000000000000E+00   0.00000000000000E+00   0.00000000000000E+00   0.00000000000000E+00  -4.15504718518449E-18
     -1.79046777786068E-03  -1.79046777786068E-03   3.37720917784475E-17   0.00000000000000E+00   0.00000000000000E+00
      0.00000000000000E+00   0.00000000000000E+00  -2.25509478876785E-19  -2.17676538085625E-02  -2.17676538085625E-02
      3.75869357567188E-17   1.48113333333333E+00   1.48113333333333E+00   0.00000000000000E+00   0.00000000000000E+00
      1.39426819309529E-18   2.35581215864232E-02   2.35581215864232E-02   8.83427740144898E-17   0.00000000000000E+00
      0.00000000000000E+00   0.00000000000000E+00   0.00000000000000E+00   0.00000000000000E+00   0.00000000000000E+00
      0.00000000000000E+00  -1.59701801549656E-16
      5.18711111111111E-01
      0.00000000000000E+00   0.00000000000000E+00   0.00000000000000E+00   0.00000000000000E+00  -4.33813044296701E-18
     -1.87581244353292E-03  -1.87581244353292E-03   3.38010455938124E-17   0.00000000000000E+00   0.00000000000000E+00
      0.00000000000000E+00   0.00000000000000E+00  -2.36838516345609E-19  -2.28574449368632E-02  -2.28574449368632E-02
      5.57352376041393E-17   1.55613333333333E+00   1.55613333333333E+00   0.00000000000000E+00   0.00000000000000E+00
      1.52061618068723E-18   2.47332573803961E-02   2.47332573803961E-02   1.06896653943984E-16   0.00000000000000E+00
      0.00000000000000E+00   0.00000000000000E+00   0.00000000000000E+00   0.00000000000000E+00   0.00000000000000E+00
      0.00000000000000E+00  -1.96432937141937E-16
      5.43711111111111E-01
      0.00000000000000E+00   0.00000000000000E+00   0.00000000000000E+00   0.00000000000000E+00  -4.51883361636809E-18
     -1.96063372611020E-03  -1.96063372611020E-03   3.38303092499757E-17   0.00000000000000E+00   0.00000000000000E+00
      0.00000000000000E+00   0.00000000000000E+00  -2.48153444720746E-19  -2.39459371101674E-02  -2.39459371101674E-02
      7.38742393643109E-17   1.63113333333333E+00   1.63113333333333E+00   0.00000000000000E+00   0.00000000000000E+00
      1.64932687036982E-18   2.59065708362776E-02   2.59065708362776E-02   1.25440620959132E-16   0.00000000000000E+00
      0.00000000000000E+00   0.00000000000000E+00   0.00000000000000E+00   0.00000000000000E+00   0.00000000000000E+00
      0.00000000000000E+00  -2.33145169573420E-16
      5.68711111111111E-01
      0.00000000000000E+00   0.00000000000000E+00   0.00000000000000E+00   0.00000000000000E+00  -4.69719455112969E-18
     -2.04493260639770E-03  -2.04493260639771E-03   3.38598818948233E-17   0.00000000000000E+00   0.00000000000000E+00
      0.00000000000000E+00   0.00000000000000E+00  -2.59454727888767E-19  -2.50331216077717E-02  -2.50331216077717E-02
      9.20044585631599E-17   1.70613333333333E+00   1.70613333333333E+00   0.00000000000000E+00   0.00000000000000E+00
      1.78007420783141E-18   2.70780542141694E-02   2.70780542141694E-02   1.43975119332038E-16   0.00000000000000E+00
      0.00000000000000E+00   0.00000000000000E+00   0.00000000000000E+00   0.00000000000000E+00   0.00000000000000E+00
      0.00000000000000E+00  -2.69839459790021E-16
      5.93711111111111E-01
      0.00000000000000E+00   0.00000000000000E+00   0.00000000000000E+00   0.00000000000000E+00  -4.87325070359568E-18
     -2.12871022243223E-03  -2.12871022243223E-03   3.38897625946421E-17   0.00000000000000E+00   0.00000000000000E+00
      0.00000000000000E+00   0.00000000000000E+00  -2.70742753965552E-19  -2.61189899752257E-02  -2.61189899752257E-02
      1.10126393395876E-16   1.78113333333333E+00   1.78113333333333E+00   0.00000000000000E+00   0.00000000000000E+00
      1.91256303507231E-18   2.82477001976579E-02   2.82477001976579E-02   1.62500576202748E-16   0.00000000000000E+00
      0.00000000000000E+00   0.00000000000000E+00   0.00000000000000E+00   0.00000000000000E+00   0.00000000000000E+00
      0.00000000000000E+00  -3.06516732193266E-16
      6.18711111111111E-01
      0.00000000000000E+00   0.00000000000000E+00   0.00000000000000E+00   0.00000000000000E+00  -5.04703908205900E-18
     -2.21196784536794E-03  -2.21196784536795E-03   3.39199503747126E-17   0.00000000000000E+00   0.00000000000000E+00
      0.00000000000000E+00   0.00000000000000E+00  -2.82017847704056E-19  -2.72035339988637E-02  -2.72035339988637E-02
      1.28240520245498E-16   1.85613333333333E+00   1.85613333333333E+00   0.00000000000000E+00   0.00000000000000E+00
      2.04652663216632E-18   2.94155018442317E-02   2.94155018442317E-02   1.81017399193151E-16   0.00000000000000E+00
      0.00000000000000E+00   0.00000000000000E+00   0.00000000000000E+00   0.00000000000000E+00   0.00000000000000E+00
      0.00000000000000E+00  -3.43177869813363E-16
      6.43711111111111E-01
      0.00000000000000E+00   0.00000000000000E+00   0.00000000000000E+00   0.00000000000000E+00  -5.21859620604280E-18
     -2.29470686172322E-03  -2.29470686172322E-03   3.39504441632819E-17   0.00000000000000E+00   0.00000000000000E+00
      0.00000000000000E+00   0.00000000000000E+00  -2.93280280476853E-19  -2.82867456511278E-02  -2.82867456511278E-02
      1.46347295160270E-16   1.93113333333333E+00   1.93113333333333E+00   0.00000000000000E+00   0.00000000000000E+00
      2.18172426187399E-18   3.05814525128510E-02   3.05814525128511E-02   1.99525978445655E-16   0.00000000000000E+00
      0.00000000000000E+00   0.00000000000000E+00   0.00000000000000E+00   0.00000000000000E+00   0.00000000000000E+00
      0.00000000000000E+00  -3.79823717769206E-16
      6.68711111111111E-01
      0.00000000000000E+00   0.00000000000000E+00   0.00000000000000E+00   0.00000000000000E+00  -5.38795807014246E-18
     -2.37692875605140E-03  -2.37692875605140E-03   3.39812428536696E-17   0.00000000000000E+00   0.00000000000000E+00
      0.00000000000000E+00   0.00000000000000E+00  -3.04530278495087E-19  -2.93686170379268E-02  -2.93686170379268E-02
      1.64447151501979E-16   2.00613333333333E+00   2.00613333333333E+00   0.00000000000000E+00   0.00000000000000E+00
      2.31793880102223E-18   3.17455457939783E-02   3.17455457939783E-02   2.18026684057242E-16   0.00000000000000E+00
      0.00000000000000E+00   0.00000000000000E+00   0.00000000000000E+00   0.00000000000000E+00   0.00000000000000E+00
      0.00000000000000E+00  -4.16455078412891E-16
      6.93711111111111E-01
      0.00000000000000E+00   0.00000000000000E+00   0.00000000000000E+00   0.00000000000000E+00  -5.55516012051664E-18
     -2.45863509824588E-03  -2.45863509824589E-03   3.40123452899091E-17   0.00000000000000E+00   0.00000000000000E+00
      0.00000000000000E+00   0.00000000000000E+00  -3.15768030001948E-19  -3.04491403900228E-02  -3.04491403900228E-02
      1.82540500333268E-16   2.08113333333333E+00   2.08113333333333E+00   0.00000000000000E+00   0.00000000000000E+00
      2.45497450782731E-18   3.29077754882687E-02   3.29077754882687E-02   2.36519866596021E-16   0.00000000000000E+00
      0.00000000000000E+00   0.00000000000000E+00   0.00000000000000E+00   0.00000000000000E+00   0.00000000000000E+00
      0.00000000000000E+00  -4.53072712219199E-16
      7.18711111111111E-01
      0.00000000000000E+00   0.00000000000000E+00   0.00000000000000E+00   0.00000000000000E+00  -5.72023723728497E-18
     -2.53982753256391E-03  -2.53982753256391E-03   3.40437502763940E-17   0.00000000000000E+00   0.00000000000000E+00
      0.00000000000000E+00   0.00000000000000E+00  -3.26993691078368E-19  -3.15283080387586E-02  -3.15283080387586E-02
      2.00627730310315E-16   2.15613333333333E+00   2.15613333333333E+00   0.00000000000000E+00   0.00000000000000E+00
      2.59265494901148E-18   3.40681355713225E-02   3.40681355713225E-02   2.55005856918365E-16   0.00000000000000E+00
      0.00000000000000E+00   0.00000000000000E+00   0.00000000000000E+00   0.00000000000000E+00   0.00000000000000E+00
      0.00000000000000E+00  -4.89677337505074E-16
      7.43711111111111E-01
      0.00000000000000E+00   0.00000000000000E+00   0.00000000000000E+00   0.00000000000000E+00  -5.88322372331206E-18
     -2.62050776883622E-03  -2.62050776883623E-03   3.40754565894171E-17   0.00000000000000E+00   0.00000000000000E+00
      0.00000000000000E+00   0.00000000000000E+00  -3.38207390800430E-19  -3.26061124264041E-02  -3.26061124264041E-02
      2.18709207483760E-16   2.23113333333333E+00   2.23113333333333E+00   0.00000000000000E+00   0.00000000000000E+00
      2.73082109914784E-18   3.52266201952403E-02   3.52266201952403E-02   2.73484966153729E-16   0.00000000000000E+00
      0.00000000000000E+00   0.00000000000000E+00   0.00000000000000E+00   0.00000000000000E+00   0.00000000000000E+00
      0.00000000000000E+00  -5.26269630226905E-16
      7.68711111111111E-01
      0.00000000000000E+00   0.00000000000000E+00   0.00000000000000E+00   0.00000000000000E+00  -6.04415329860284E-18
     -2.70067757570686E-03  -2.70067757570686E-03   3.41074629663095E-17   0.00000000000000E+00   0.00000000000000E+00
      0.00000000000000E+00   0.00000000000000E+00  -3.49409235317475E-19  -3.36825460925114E-02  -3.36825460925114E-02
      2.36785276228751E-16   2.30613333333333E+00   2.30613333333333E+00   0.00000000000000E+00   0.00000000000000E+00
      2.86932961014396E-18   3.63832236682183E-02   3.63832236682183E-02   2.91957486542151E-16   0.00000000000000E+00
      0.00000000000000E+00   0.00000000000000E+00   0.00000000000000E+00   0.00000000000000E+00   0.00000000000000E+00
      0.00000000000000E+00  -5.62850225737211E-16
      7.93711111111111E-01
      0.00000000000000E+00   0.00000000000000E+00   0.00000000000000E+00   0.00000000000000E+00  -6.20305909742212E-18
     -2.78033877465044E-03  -2.78033877465045E-03   3.41397681281914E-17   0.00000000000000E+00   0.00000000000000E+00
      0.00000000000000E+00   0.00000000000000E+00  -3.60599311251712E-19  -3.47576016608770E-02  -3.47576016608770E-02
      2.54856259278556E-16   2.38113333333333E+00   2.38113333333333E+00   0.00000000000000E+00   0.00000000000000E+00
      3.00805124603380E-18   3.75379404355275E-02   3.75379404355275E-02   3.10423691333125E-16   0.00000000000000E+00
      0.00000000000000E+00   0.00000000000000E+00   0.00000000000000E+00   0.00000000000000E+00   0.00000000000000E+00
      0.00000000000000E+00  -5.99419718739873E-16
      8.18711111111112E-01
      0.00000000000000E+00   0.00000000000000E+00   0.00000000000000E+00   0.00000000000000E+00  -6.35997367014264E-18
     -2.85949323588974E-03  -2.85949323588975E-03   3.41723707629185E-17   0.00000000000000E+00   0.00000000000000E+00
      0.00000000000000E+00   0.00000000000000E+00  -3.71777688892310E-19  -3.58312718611108E-02  -3.58312718611108E-02
      2.72922458785744E-16   2.45613333333333E+00   2.45613333333334E+00   0.00000000000000E+00   0.00000000000000E+00
      3.14686947448959E-18   3.86907650970005E-02   3.86907650970005E-02   3.28883835920255E-16   0.00000000000000E+00
      0.00000000000000E+00   0.00000000000000E+00   0.00000000000000E+00   0.00000000000000E+00   0.00000000000000E+00
      0.00000000000000E+00  -6.35978665468916E-16
      8.43711111111112E-01
      0.00000000000000E+00   0.00000000000000E+00   0.00000000000000E+00   0.00000000000000E+00  -6.51492898682130E-18
     -2.93814287485984E-03  -2.93814287485985E-03   3.42052695384004E-17   0.00000000000000E+00   0.00000000000000E+00
      0.00000000000000E+00   0.00000000000000E+00  -3.82944424587169E-19  -3.69035495181559E-02  -3.69035495181559E-02
      2.90984156943376E-16   2.53113333333333E+00   2.53113333333333E+00   0.00000000000000E+00   0.00000000000000E+00
      3.28567920141266E-18   3.98416923930158E-02   3.98416923930158E-02   3.47338158329698E-16   0.00000000000000E+00
      0.00000000000000E+00   0.00000000000000E+00   0.00000000000000E+00   0.00000000000000E+00   0.00000000000000E+00
      0.00000000000000E+00  -6.72527584811475E-16
      8.68711111111112E-01
      0.00000000000000E+00   0.00000000000000E+00   0.00000000000000E+00   0.00000000000000E+00  -6.66795644287268E-18