DF-ISE text

Info {
  version   = 1.0
  type      = xyplot
  datasets  = [
    "time"
    "substrate OuterVoltage" "substrate InnerVoltage" "substrate QuasiFermiPotential" "substrate DisplacementCurrent" "substrate eCurrent"
    "substrate hCurrent" "substrate TotalCurrent" "substrate Charge" "source OuterVoltage" "source InnerVoltage"
    "source QuasiFermiPotential" "source DisplacementCurrent" "source eCurrent" "source hCurrent" "source TotalCurrent"
    "source Charge" "drain OuterVoltage" "drain InnerVoltage" "drain QuasiFermiPotential" "drain DisplacementCurrent"
    "drain eCurrent" "drain hCurrent" "drain TotalCurrent" "drain Charge" "gate OuterVoltage"
    "gate InnerVoltage" "gate QuasiFermiPotential" "gate DisplacementCurrent" "gate eCurrent" "gate hCurrent"
    "gate TotalCurrent" "gate Charge" ]
  functions = [
    Time
    OuterVoltage InnerVoltage QuasiFermiPotential DisplacementCurrent eCurrent
    hCurrent TotalCurrent Charge OuterVoltage InnerVoltage
    QuasiFermiPotential DisplacementCurrent eCurrent hCurrent TotalCurrent
    Charge OuterVoltage InnerVoltage QuasiFermiPotential DisplacementCurrent
    eCurrent hCurrent TotalCurrent Charge OuterVoltage
    InnerVoltage QuasiFermiPotential DisplacementCurrent eCurrent hCurrent
    TotalCurrent Charge ]
}

Data {
      0.00000000000000E+00
      0.00000000000000E+00   0.00000000000000E+00   0.00000000000000E+00   0.00000000000000E+00   3.03963485895465E-19
     -3.15363194123570E-28   3.03963485580102E-19  -4.04930460755960E-15   0.00000000000000E+00   0.00000000000000E+00
      0.00000000000000E+00   0.00000000000000E+00  -1.44215978352415E-19   2.35838442294252E-27  -1.44215975994030E-19
      1.54829572234655E-15   0.00000000000000E+00   0.00000000000000E+00   0.00000000000000E+00   0.00000000000000E+00
     -1.59747507543029E-19  -2.04304264927289E-27  -1.59747509586071E-19   1.54829572234655E-15   1.00000000000000E+00
      1.00000000000000E+00   0.00000000000000E+00   0.00000000000000E+00   0.00000000000000E+00   0.00000000000000E+00
      0.00000000000000E+00   9.52713162866509E-16
      1.00000000000000E-02
      0.00000000000000E+00   0.00000000000000E+00   0.00000000000000E+00   0.00000000000000E+00   8.33604174403535E-17
     -3.07241013069315E-17   5.26363161334220E-17  -4.08330063831830E-15   0.00000000000000E+00   0.00000000000000E+00
      0.00000000000000E+00   0.00000000000000E+00  -7.37101224026026E-16  -3.00561738705442E-27  -7.37101224029031E-16
      1.54829572234046E-15   3.00000000000000E-02   3.00000000000000E-02   0.00000000000000E+00   0.00000000000000E+00
      6.84440119463175E-16   2.47884324340414E-20   6.84464907895609E-16   1.58563583481287E-15   1.00000000000000E+00
      1.00000000000000E+00   0.00000000000000E+00   0.00000000000000E+00   0.00000000000000E+00   0.00000000000000E+00
      0.00000000000000E+00   9.49369081164982E-16
      2.33333333333333E-02
      0.00000000000000E+00   0.00000000000000E+00   0.00000000000000E+00   0.00000000000000E+00  -8.18098409446218E-19
     -6.29100086987236E-17  -6.37281071081698E-17  -4.12793060812093E-15   0.00000000000000E+00   0.00000000000000E+00
      0.00000000000000E+00   0.00000000000000E+00  -9.66552379861598E-16  -8.03597451244042E-28  -9.66552379862402E-16
      1.54829572233255E-15   7.00000000000000E-02   7.00000000000000E-02   0.00000000000000E+00   0.00000000000000E+00
      1.03024793142629E-15   3.25555442821870E-20   1.03028048697057E-15   1.63462012226381E-15   1.00000000000000E+00
      1.00000000000000E+00   0.00000000000000E+00   0.00000000000000E+00   0.00000000000000E+00   0.00000000000000E+00
      0.00000000000000E+00   9.45014763524568E-16
      4.24444444444445E-02
      0.00000000000000E+00   0.00000000000000E+00   0.00000000000000E+00   0.00000000000000E+00  -1.05254794985882E-16
     -1.13114748222494E-16  -2.18369543208376E-16  -4.19046495299854E-15   0.00000000000000E+00   0.00000000000000E+00
      0.00000000000000E+00   0.00000000000000E+00  -1.00007392778749E-15   7.88830601879640E-28  -1.00007392778670E-15
      1.54829572232153E-15   1.27333333333333E-01   1.27333333333333E-01   0.00000000000000E+00   0.00000000000000E+00
      1.21840932338397E-15   3.41476111087585E-20   1.21844347099508E-15   1.70320769902275E-15   1.00000000000000E+00
      1.00000000000000E+00   0.00000000000000E+00   0.00000000000000E+00   0.00000000000000E+00   0.00000000000000E+00
      0.00000000000000E+00   9.38961531654263E-16
      6.74444444444444E-02
      0.00000000000000E+00   0.00000000000000E+00   0.00000000000000E+00   0.00000000000000E+00  -9.57089818349862E-16
     -2.20536695992151E-16  -1.17762651434201E-15  -4.26966492641276E-15   0.00000000000000E+00   0.00000000000000E+00
      0.00000000000000E+00   0.00000000000000E+00  -1.00445775357194E-15   2.32758031152331E-27  -1.00445775356961E-15
      1.54829572230744E-15   2.02333333333333E-01   2.02333333333333E-01   0.00000000000000E+00   0.00000000000000E+00
      2.18205309463767E-15   3.11732739553029E-20   2.18208426791162E-15   1.79006125836616E-15   1.00000000000000E+00
      1.00000000000000E+00   0.00000000000000E+00   0.00000000000000E+00   0.00000000000000E+00   0.00000000000000E+00
      0.00000000000000E+00   9.31307945739163E-16
      9.24444444444444E-02
      0.00000000000000E+00   0.00000000000000E+00   0.00000000000000E+00   0.00000000000000E+00  -2.65959057168976E-19
     -3.52926674184132E-16  -3.53192633241301E-16  -4.34612001194456E-15   0.00000000000000E+00   0.00000000000000E+00
      0.00000000000000E+00   0.00000000000000E+00  -1.00888782618462E-15   6.58808279449855E-28  -1.00888782618397E-15
      1.54829572229348E-15   2.77333333333333E-01   2.77333333333333E-01   0.00000000000000E+00   0.00000000000000E+00
      1.36204360627832E-15   3.68531469461012E-20   1.36208045942526E-15   1.87397654297566E-15   1.00000000000000E+00
      1.00000000000000E+00   0.00000000000000E+00   0.00000000000000E+00   0.00000000000000E+00   0.00000000000000E+00
      0.00000000000000E+00   9.23847746675415E-16
      1.17444444444444E-01
      0.00000000000000E+00   0.00000000000000E+00   0.00000000000000E+00   0.00000000000000E+00   2.65934060084098E-19
     -4.39560229565667E-16  -4.39294295505583E-16  -4.42041421206992E-15   0.00000000000000E+00   0.00000000000000E+00
      0.00000000000000E+00   0.00000000000000E+00  -1.01385839476431E-15   3.79037482751716E-29  -1.01385839476427E-15
      1.54829572227947E-15   3.52333333333333E-01   3.52333333333333E-01   0.00000000000000E+00   0.00000000000000E+00
      1.45312200013806E-15   3.06901317904056E-20   1.45315269026985E-15   1.95562106920686E-15   1.00000000000000E+00
      1.00000000000000E+00   0.00000000000000E+00   0.00000000000000E+00   0.00000000000000E+00   0.00000000000000E+00
      0.00000000000000E+00   9.16497420583585E-16
      1.42444444444444E-01
      0.00000000000000E+00   0.00000000000000E+00   0.00000000000000E+00   0.00000000000000E+00   7.84599249571855E-20
     -4.85444015048705E-16  -4.85365555123748E-16  -4.49321067991742E-15   0.00000000000000E+00   0.00000000000000E+00
      0.00000000000000E+00   0.00000000000000E+00  -1.01786212407200E-15   2.17455622765898E-27  -1.01786212406982E-15
      1.54829572226532E-15   4.27333333333333E-01   4.27333333333333E-01   0.00000000000000E+00   0.00000000000000E+00
      1.50319649344200E-15   3.11857515676434E-20   1.50322767919357E-15   2.03569378772306E-15   1.00000000000000E+00
      1.00000000000000E+00   0.00000000000000E+00   0.00000000000000E+00   0.00000000000000E+00   0.00000000000000E+00
      0.00000000000000E+00   9.09221169929028E-16
      1.67444444444444E-01
      0.00000000000000E+00   0.00000000000000E+00   0.00000000000000E+00   0.00000000000000E+00  -3.88799149357208E-19
     -5.21346989927673E-16  -5.21735789077030E-16  -4.56498604270460E-15   0.00000000000000E+00   0.00000000000000E+00
      0.00000000000000E+00   0.00000000000000E+00  -1.02150442722807E-15  -1.11405491426989E-27  -1.02150442722918E-15
      1.54829572225101E-15   5.02333333333333E-01   5.02333333333333E-01   0.00000000000000E+00   0.00000000000000E+00
      1.54320727029921E-15   3.29460069982508E-20   1.54324021630621E-15   2.11467750530571E-15   1.00000000000000E+00
      1.00000000000000E+00   0.00000000000000E+00   0.00000000000000E+00   0.00000000000000E+00   0.00000000000000E+00
      0.00000000000000E+00   9.02012815147881E-16
      1.92444444444444E-01
      0.00000000000000E+00   0.00000000000000E+00   0.00000000000000E+00   0.00000000000000E+00  -4.06304326690607E-19
     -5.53420637686086E-16  -5.53826942012777E-16  -4.63600338166463E-15   0.00000000000000E+00   0.00000000000000E+00
      0.00000000000000E+00   0.00000000000000E+00  -1.02546515213381E-15  -8.71106433601236E-28  -1.02546515213468E-15
      1.54829572223655E-15   5.77333333333333E-01   5.77333333333333E-01   0.00000000000000E+00   0.00000000000000E+00
      1.57925525294656E-15   3.68412008952626E-20   1.57929209414746E-15   2.19282805189905E-15   1.00000000000000E+00
      1.00000000000000E+00   0.00000000000000E+00   0.00000000000000E+00   0.00000000000000E+00   0.00000000000000E+00
      0.00000000000000E+00   8.94879607529032E-16
      2.17444444444444E-01
      0.00000000000000E+00   0.00000000000000E+00   0.00000000000000E+00   0.00000000000000E+00  -1.48188041861323E-19
     -5.84006599940909E-16  -5.84154787982770E-16  -4.70638283410003E-15   0.00000000000000E+00   0.00000000000000E+00
      0.00000000000000E+00   0.00000000000000E+00  -1.02956794934130E-15   4.71793146528445E-27  -1.02956794933658E-15
      1.54829572222199E-15   6.52333333333333E-01   6.52333333333333E-01   0.00000000000000E+00   0.00000000000000E+00
      1.61365448192704E-15   6.82553923020905E-20   1.61372273731935E-15   2.27025390320538E-15   1.00000000000000E+00
      1.00000000000000E+00   0.00000000000000E+00   0.00000000000000E+00   0.00000000000000E+00   0.00000000000000E+00
      0.00000000000000E+00   8.87833208672662E-16
      2.42444444444444E-01
      0.00000000000000E+00   0.00000000000000E+00   0.00000000000000E+00   0.00000000000000E+00   1.45723546665215E-19
     -6.16300125925460E-16  -6.16154402378795E-16  -4.77616700144175E-15   0.00000000000000E+00   0.00000000000000E+00
      0.00000000000000E+00   0.00000000000000E+00  -1.03357484503206E-15   1.42322464678369E-29  -1.03357484503204E-15
      1.54829572220736E-15   7.27333333333333E-01   7.27333333333333E-01   0.00000000000000E+00   0.00000000000000E+00
      1.64969446287849E-15   3.47845323429707E-20   1.64972924741083E-15   2.34698884249453E-15   1.00000000000000E+00
      1.00000000000000E+00   0.00000000000000E+00   0.00000000000000E+00   0.00000000000000E+00   0.00000000000000E+00
      0.00000000000000E+00   8.80882436739864E-16
      2.67444444444444E-01
      0.00000000000000E+00   0.00000000000000E+00   0.00000000000000E+00   0.00000000000000E+00   4.95761362259963E-20
     -6.52251999151133E-16  -6.52202423014907E-16  -4.84536511826996E-15   0.00000000000000E+00   0.00000000000000E+00
      0.00000000000000E+00   0.00000000000000E+00  -1.03706981451948E-15  -3.23613674675921E-27  -1.03706981452271E-15
      1.54829572219268E-15   8.02333333333333E-01   8.02333333333333E-01   0.00000000000000E+00   0.00000000000000E+00
      1.68923545286861E-15   3.67846690077448E-20   1.68927223753762E-15   2.42304407206116E-15   1.00000000000000E+00
      1.00000000000000E+00   0.00000000000000E+00   0.00000000000000E+00   0.00000000000000E+00   0.00000000000000E+00
      0.00000000000000E+00   8.74025324016136E-16
      2.92444444444444E-01
      0.00000000000000E+00   0.00000000000000E+00   0.00000000000000E+00   0.00000000000000E+00   1.80848736441566E-19
     -6.96899934627510E-16  -6.96719085891068E-16  -4.91397795701141E-15   0.00000000000000E+00   0.00000000000000E+00
      0.00000000000000E+00   0.00000000000000E+00  -1.04068589773840E-15   4.99950059150598E-28  -1.04068589773790E-15
      1.54829572217789E-15   8.77333333333333E-01   8.77333333333333E-01   0.00000000000000E+00   0.00000000000000E+00
      1.73736045380779E-15   4.45298211794313E-20   1.73740498362897E-15   2.49843731067547E-15   1.00000000000000E+00
      1.00000000000000E+00   0.00000000000000E+00   0.00000000000000E+00   0.00000000000000E+00   0.00000000000000E+00
      0.00000000000000E+00   8.67244924158046E-16
      3.17444444444444E-01
      0.00000000000000E+00   0.00000000000000E+00   0.00000000000000E+00   0.00000000000000E+00  -1.70841451155722E-19
     -7.56082364737510E-16  -7.56253206188666E-16  -4.98200352447849E-15   0.00000000000000E+00   0.00000000000000E+00
      0.00000000000000E+00   0.00000000000000E+00  -1.04373496039584E-15  -1.97412529130749E-27  -1.04373496039781E-15
      1.54829572216294E-15   9.52333333333333E-01   9.52333333333333E-01   0.00000000000000E+00   0.00000000000000E+00
      1.79986938488923E-15   1.18781697249875E-19   1.79998816658648E-15   2.57319289472887E-15   1.00000000000000E+00
      1.00000000000000E+00   0.00000000000000E+00   0.00000000000000E+00   0.00000000000000E+00   0.00000000000000E+00
      0.00000000000000E+00   8.60514907586673E-16
      3.42444444444444E-01
      0.00000000000000E+00   0.00000000000000E+00   0.00000000000000E+00   0.00000000000000E+00   5.92332787203133E-19
     -8.34203907785239E-16  -8.33611574998036E-16  -5.04942865131142E-15   0.00000000000000E+00   0.00000000000000E+00
      0.00000000000000E+00   0.00000000000000E+00  -1.04783731448273E-15  -6.48448576115930E-28  -1.04783731448338E-15
      1.54829572214774E-15   1.02733333333333E+00   1.02733333333333E+00   0.00000000000000E+00   0.00000000000000E+00
      1.88130789686388E-15   1.40992617535288E-19   1.88144888948142E-15   2.64732248543071E-15   1.00000000000000E+00
      1.00000000000000E+00   0.00000000000000E+00   0.00000000000000E+00   0.00000000000000E+00   0.00000000000000E+00
      0.00000000000000E+00   8.53810443732968E-16
      3.67444444444445E-01
      0.00000000000000E+00   0.00000000000000E+00   0.00000000000000E+00   0.00000000000000E+00   2.43753169257339E-19
     -9.33994319446070E-16  -9.33750566276812E-16  -5.11621535140085E-15   0.00000000000000E+00   0.00000000000000E+00
      0.00000000000000E+00   0.00000000000000E+00  -1.05077806138511E-15   1.72590197289431E-28  -1.05077806138494E-15
      1.54829572213225E-15   1.10233333333333E+00   1.10233333333333E+00   0.00000000000000E+00   0.00000000000000E+00
      1.98437791221165E-15   1.50715450104490E-19   1.98452862766176E-15   2.72080525361863E-15   1.00000000000000E+00
      1.00000000000000E+00   0.00000000000000E+00   0.00000000000000E+00   0.00000000000000E+00   0.00000000000000E+00
      0.00000000000000E+00   8.47114375649978E-16
      3.92444444444445E-01
      0.00000000000000E+00   0.00000000000000E+00   0.00000000000000E+00   0.00000000000000E+00   1.40638004060618E-17
     -1.05893654770376E-15  -1.04487274729770E-15  -5.18228769409128E-15   0.00000000000000E+00   0.00000000000000E+00
      0.00000000000000E+00   0.00000000000000E+00  -1.05410420914001E-15  -1.30712779506654E-27  -1.05410420914132E-15
      1.54829572211724E-15   1.17733333333333E+00   1.17733333333333E+00   0.00000000000000E+00   0.00000000000000E+00
      2.09904119112902E-15  -6.42346900071085E-20   2.09897695643902E-15   2.79357497113281E-15   1.00000000000000E+00
      1.00000000000000E+00   0.00000000000000E+00   0.00000000000000E+00   0.00000000000000E+00   0.00000000000000E+00
      0.00000000000000E+00   8.40417000841241E-16
      4.17444444444445E-01
      0.00000000000000E+00   0.00000000000000E+00   0.00000000000000E+00   0.00000000000000E+00  -1.35562052007504E-19
     -1.21011674329232E-15  -1.21025230534433E-15  -5.24752290577077E-15   0.00000000000000E+00   0.00000000000000E+00
      0.00000000000000E+00   0.00000000000000E+00  -1.05685237864136E-15   7.16452722860738E-28  -1.05685237864065E-15
      1.54829572210025E-15   1.25233333333333E+00   1.25233333333333E+00   0.00000000000000E+00   0.00000000000000E+00
      2.26706798515568E-15   3.66988292954270E-20   2.26710468398498E-15   2.86551368178459E-15   1.00000000000000E+00
      1.00000000000000E+00   0.00000000000000E+00   0.00000000000000E+00   0.00000000000000E+00   0.00000000000000E+00
      0.00000000000000E+00   8.33713501885931E-16
      4.42444444444445E-01
      0.00000000000000E+00   0.00000000000000E+00   0.00000000000000E+00   0.00000000000000E+00   3.02534466117148E-19
     -1.36446791451626E-15  -1.36416538005014E-15  -5.31175119635959E-15   0.00000000000000E+00   0.00000000000000E+00
      0.00000000000000E+00   0.00000000000000E+00  -1.06022102978774E-15   2.18777826975658E-27  -1.06022102978555E-15
      1.54829572208373E-15   1.32733333333333E+00   1.32733333333333E+00   0.00000000000000E+00   0.00000000000000E+00
      2.42579707641056E-15  -1.41066657487063E-18   2.42438640983569E-15   2.93645375719442E-15   1.00000000000000E+00
      1.00000000000000E+00   0.00000000000000E+00   0.00000000000000E+00   0.00000000000000E+00   0.00000000000000E+00
      0.00000000000000E+00   8.27001717081445E-16
      4.67444444444445E-01
      0.00000000000000E+00   0.00000000000000E+00   0.00000000000000E+00   0.00000000000000E+00  -1.78865076546729E-19
     -1.49098060646814E-15  -1.49115947154469E-15  -5.37477369063548E-15   0.00000000000000E+00   0.00000000000000E+00
      0.00000000000000E+00   0.00000000000000E+00  -1.06306568558299E-15  -5.72553163927688E-28  -1.06306568558356E-15
      1.54829572206687E-15   1.40233333333333E+00   1.40233333333333E+00   0.00000000000000E+00   0.00000000000000E+00
      2.55389652577091E-15   3.28631357333912E-19   2.55422515712825E-15   3.00619717772585E-15   1.00000000000000E+00
      1.00000000000000E+00   0.00000000000000E+00   0.00000000000000E+00   0.00000000000000E+00   0.00000000000000E+00
      0.00000000000000E+00   8.20280790842760E-16
      4.92444444444445E-01
      0.00000000000000E+00   0.00000000000000E+00   0.00000000000000E+00   0.00000000000000E+00  -5.16093554875111E-19
     -1.57162389588466E-15  -1.57213998943953E-15  -5.43641334969025E-15   0.00000000000000E+00   0.00000000000000E+00
      0.00000000000000E+00   0.00000000000000E+00  -1.06591394770314E-15  -2.47580270541738E-27  -1.06591394770562E-15
      1.54829572204968E-15   1.47733333333333E+00   1.47733333333333E+00   0.00000000000000E+00   0.00000000000000E+00
      2.63794370095540E-15   1.10236189745894E-19   2.63805393714515E-15   3.07456715374546E-15   1.00000000000000E+00
      1.00000000000000E+00   0.00000000000000E+00   0.00000000000000E+00   0.00000000000000E+00   0.00000000000000E+00
      0.00000000000000E+00   8.13550473895117E-16
      5.17444444444445E-01
      0.00000000000000E+00   0.00000000000000E+00   0.00000000000000E+00   0.00000000000000E+00  -7.17483560395161E-20
     -1.62140463363732E-15  -1.62147638199336E-15  -5.49659905438033E-15   0.00000000000000E+00   0.00000000000000E+00
      0.00000000000000E+00   0.00000000000000E+00  -1.06944674663031E-15  -8.08932166844099E-28  -1.06944674663112E-15
      1.54829572203214E-15   1.55233333333333E+00   1.55233333333333E+00   0.00000000000000E+00   0.00000000000000E+00
      2.69088635559586E-15   3.67730286088814E-20   2.69092312862447E-15   3.14149254019596E-15   1.00000000000000E+00
      1.00000000000000E+00   0.00000000000000E+00   0.00000000000000E+00   0.00000000000000E+00   0.00000000000000E+00
      0.00000000000000E+00   8.06810792152228E-16
      5.42444444444445E-01
      0.00000000000000E+00   0.00000000000000E+00   0.00000000000000E+00   0.00000000000000E+00  -8.65632846729498E-21
     -1.65587460320054E-15  -1.65588325952900E-15  -5.55543244632044E-15   0.00000000000000E+00   0.00000000000000E+00
      0.00000000000000E+00   0.00000000000000E+00  -1.07256420070732E-15   1.02752397762455E-27  -1.07256420070629E-15
      1.54829572201424E-15   1.62733333333333E+00   1.62733333333333E+00   0.00000000000000E+00   0.00000000000000E+00
      2.72812869118925E-15   3.18769046049569E-19   2.72844746023530E-15   3.20707482141570E-15   1.00000000000000E+00
      1.00000000000000E+00   0.00000000000000E+00   0.00000000000000E+00   0.00000000000000E+00   0.00000000000000E+00
      0.00000000000000E+00   8.00061902890497E-16
      5.67444444444445E-01
      0.00000000000000E+00   0.00000000000000E+00   0.00000000000000E+00   0.00000000000000E+00   3.07620674753700E-19
     -1.68236387285650E-15  -1.68205625218175E-15  -5.61316265267959E-15   0.00000000000000E+00   0.00000000000000E+00
      0.00000000000000E+00   0.00000000000000E+00  -1.07590188822586E-15   3.04820955486651E-28  -1.07590188822556E-15
      1.54829572199598E-15   1.70233333333333E+00   1.70233333333333E+00   0.00000000000000E+00   0.00000000000000E+00
      2.75766607910409E-15   2.92061303212528E-19   2.75795814040731E-15   3.27156289147201E-15   1.00000000000000E+00
      1.00000000000000E+00   0.00000000000000E+00   0.00000000000000E+00   0.00000000000000E+00   0.00000000000000E+00
      0.00000000000000E+00   7.93304039211591E-16
      5.92444444444445E-01
      0.00000000000000E+00   0.00000000000000E+00   0.00000000000000E+00   0.00000000000000E+00   1.24927230432551E-19
     -1.70318745651512E-15  -1.70306252928469E-15  -5.67007888554662E-15   0.00000000000000E+00   0.00000000000000E+00
      0.00000000000000E+00   0.00000000000000E+00  -1.07872201419728E-15  -5.52542496005372E-28  -1.07872201419783E-15
      1.54829572197735E-15   1.77733333333333E+00   1.77733333333333E+00   0.00000000000000E+00   0.00000000000000E+00
      2.78173016042585E-15   5.43830566739460E-20   2.78178454348252E-15   3.33524567126464E-15   1.00000000000000E+00
      1.00000000000000E+00   0.00000000000000E+00   0.00000000000000E+00   0.00000000000000E+00   0.00000000000000E+00
      0.00000000000000E+00   7.86537492304614E-16
      6.17444444444445E-01
      0.00000000000000E+00   0.00000000000000E+00   0.00000000000000E+00   0.00000000000000E+00   2.14321914070785E-19
     -1.71979437560942E-15  -1.71958005369535E-15  -5.72641781626698E-15   0.00000000000000E+00   0.00000000000000E+00
      0.00000000000000E+00   0.00000000000000E+00  -1.08178328375168E-15  -7.01627360274491E-28  -1.08178328375239E-15
      1.54829572195835E-15   1.85233333333333E+00   1.85233333333333E+00   0.00000000000000E+00   0.00000000000000E+00
      2.80132640650813E-15   3.69309396122932E-20   2.80136333744774E-15   3.39835948685513E-15   1.00000000000000E+00
      1.00000000000000E+00   0.00000000000000E+00   0.00000000000000E+00   0.00000000000000E+00   0.00000000000000E+00
      0.00000000000000E+00   7.79762607453502E-16
      6.42444444444445E-01
      0.00000000000000E+00   0.00000000000000E+00   0.00000000000000E+00   0.00000000000000E+00   1.17080210144888E-19
     -1.73365018159402E-15  -1.73353310138388E-15  -5.78233787617465E-15   0.00000000000000E+00   0.00000000000000E+00
      0.00000000000000E+00   0.00000000000000E+00  -1.08463164813123E-15   1.44665697546434E-27  -1.08463164812978E-15
      1.54829572193898E-15   1.92733333333333E+00   1.92733333333333E+00   0.00000000000000E+00   0.00000000000000E+00
      2.81812793969635E-15   3.68098173142989E-20   2.81816474951366E-15   3.46106237258933E-15   1.00000000000000E+00
      1.00000000000000E+00   0.00000000000000E+00   0.00000000000000E+00   0.00000000000000E+00   0.00000000000000E+00
      0.00000000000000E+00   7.72979781646339E-16
      6.67444444444445E-01
      0.00000000000000E+00   0.00000000000000E+00   0.00000000000000E+00   0.00000000000000E+00  -3.29589849708631E-19
     -1.74638278830527E-15  -1.74671237815497E-15  -5.83793575821781E-15   0.00000000000000E+00   0.00000000000000E+00
      0.00000000000000E+00   0.00000000000000E+00  -1.08710520929493E-15  -3.22685208887997E-27  -1.08710520929816E-15
      1.54829572191923E-15   2.00233333333333E+00   2.00233333333333E+00   0.00000000000000E+00   0.00000000000000E+00
      2.83378077118904E-15   3.68162640986443E-20   2.83381758745313E-15   3.52345058338219E-15   1.00000000000000E+00
      1.00000000000000E+00   0.00000000000000E+00   0.00000000000000E+00   0.00000000000000E+00   0.00000000000000E+00
      0.00000000000000E+00   7.66189452916373E-16
      6.92444444444445E-01
      0.00000000000000E+00   0.00000000000000E+00   0.00000000000000E+00   0.00000000000000E+00  -3.08116030638566E-20
     -1.75930106702331E-15  -1.75933187862638E-15  -5.89326957036636E-15   0.00000000000000E+00   0.00000000000000E+00
      0.00000000000000E+00   0.00000000000000E+00  -1.09029935392035E-15  -3.59629833235955E-27  -1.09029935392395E-15
      1.54829572189884E-15   2.07733333333333E+00   2.07733333333333E+00   0.00000000000000E+00   0.00000000000000E+00
      2.84959442384083E-15   3.68087094961186E-20   2.84963123255033E-15   3.58558177576833E-15   1.00000000000000E+00
      1.00000000000000E+00   0.00000000000000E+00   0.00000000000000E+00   0.00000000000000E+00   0.00000000000000E+00
      0.00000000000000E+00   7.59392072699195E-16
      7.17444444444445E-01
      0.00000000000000E+00   0.00000000000000E+00   0.00000000000000E+00   0.00000000000000E+00  -2.44015001727824E-19
     -1.77314940242441E-15  -1.77339341742614E-15  -5.94837463774215E-15   0.00000000000000E+00   0.00000000000000E+00
      0.00000000000000E+00   0.00000000000000E+00  -1.09295749967753E-15   2.20298861234391E-27  -1.09295749967532E-15
      1.54829572187847E-15   2.15233333333333E+00   2.15233333333333E+00   0.00000000000000E+00   0.00000000000000E+00
      2.86631416402529E-15   3.67530761720695E-20   2.86635091710147E-15   3.64749085613840E-15   1.00000000000000E+00
      1.00000000000000E+00   0.00000000000000E+00   0.00000000000000E+00   0.00000000000000E+00   0.00000000000000E+00
      0.00000000000000E+00   7.52588059725280E-16
      7.42444444444445E-01
      0.00000000000000E+00   0.00000000000000E+00   0.00000000000000E+00   0.00000000000000E+00   6.79464675325273E-20
     -1.78795036534129E-15  -1.78788241887376E-15  -6.00327210012985E-15   0.00000000000000E+00   0.00000000000000E+00
      0.00000000000000E+00   0.00000000000000E+00  -1.09611721427088E-15  -4.73418377196583E-28  -1.09611721427136E-15
      1.54829572185764E-15   2.22733333333333E+00   2.22733333333333E+00   0.00000000000000E+00   0.00000000000000E+00
      2.88396285450364E-15   3.67786414818515E-20   2.88399963314512E-15   3.70919863205486E-15   1.00000000000000E+00
      1.00000000000000E+00   0.00000000000000E+00   0.00000000000000E+00   0.00000000000000E+00   0.00000000000000E+00
      0.00000000000000E+00   7.45777746217348E-16
      7.67444444444445E-01
      0.00000000000000E+00   0.00000000000000E+00   0.00000000000000E+00   0.00000000000000E+00  -2.40516354505967E-19
     -1.80315038987417E-15  -1.80339090622868E-15  -6.05797357049875E-15   0.00000000000000E+00   0.00000000000000E+00
      0.00000000000000E+00   0.00000000000000E+00  -1.09863374657210E-15  -1.23369808536940E-27  -1.09863374657334E-15
      1.54829572183635E-15   2.30233333333333E+00   2.30233333333333E+00   0.00000000000000E+00   0.00000000000000E+00
      2.90198782500955E-15   3.68277924608325E-20   2.90202465280201E-15   3.77071651216208E-15   1.00000000000000E+00
      1.00000000000000E+00   0.00000000000000E+00   0.00000000000000E+00   0.00000000000000E+00   0.00000000000000E+00
      0.00000000000000E+00   7.38961336500330E-16
      7.92444444444445E-01
      0.00000000000000E+00   0.00000000000000E+00   0.00000000000000E+00   0.00000000000000E+00   6.14621315979441E-20
     -1.81790779619543E-15  -1.81784633406383E-15  -6.11248417098232E-15   0.00000000000000E+00   0.00000000000000E+00
      0.00000000000000E+00   0.00000000000000E+00  -1.10173886875305E-15   1.10551624831274E-28  -1.10173886875294E-15
      1.54829572181464E-15   2.37733333333333E+00   2.37733333333333E+00   0.00000000000000E+00   0.00000000000000E+00
      2.91954835905489E-15   3.68437618791036E-20   2.91958520281677E-15   3.83204955263790E-15   1.00000000000000E+00
      1.00000000000000E+00   0.00000000000000E+00   0.00000000000000E+00   0.00000000000000E+00   0.00000000000000E+00
      0.00000000000000E+00   7.32138896529777E-16
      8.17444444444445E-01
      0.00000000000000E+00   0.00000000000000E+00   0.00000000000000E+00   0.00000000000000E+00  -2.40809016953983E-20
     -1.83158750992533E-15  -1.83161159082702E-15  -6.16680506335691E-15   0.00000000000000E+00   0.00000000000000E+00
      0.00000000000000E+00   0.00000000000000E+00  -1.10443560986825E-15  -2.07671338256783E-27  -1.10443560987033E-15
      1.54829572179255E-15   2.45233333333333E+00   2.45233333333333E+00   0.00000000000000E+00   0.00000000000000E+00
      2.93601035108191E-15   3.68496154354684E-20   2.93604720069735E-15   3.89319896173625E-15   1.00000000000000E+00
      1.00000000000000E+00   0.00000000000000E+00   0.00000000000000E+00   0.00000000000000E+00   0.00000000000000E+00
      0.00000000000000E+00   7.25310379828093E-16
      8.42444444444445E-01
      0.00000000000000E+00   0.00000000000000E+00   0.00000000000000E+00   0.00000000000000E+00  -3.34924556732646E-19
     -1.84514673228459E-15  -1.84548165684132E-15  -6.22093571851011E-15   0.00000000000000E+00   0.00000000000000E+00
      0.00000000000000E+00   0.00000000000000E+00  -1.10688720901188E-15  -1.30147498685147E-27  -1.10688720901318E-15
      1.54829572177010E-15   2.52733333333333E+00   2.52733333333333E+00   0.00000000000000E+00   0.00000000000000E+00
      2.95233201137084E-15   3.68544836559166E-20   2.95236886585450E-15   3.95416431771429E-15   1.00000000000000E+00
      1.00000000000000E+00   0.00000000000000E+00   0.00000000000000E+00   0.00000000000000E+00   0.00000000000000E+00
      0.00000000000000E+00   7.18475679025711E-16
      8.67444444444445E-01
      0.00000000000000E+00   0.00000000000000E+00   0.00000000000000E+00   0.00000000000000E+00   1.82449983001440E-19