DF-ISE text

Info {
  version   = 1.0
  type      = xyplot
  datasets  = [
    "time"
    "substrate OuterVoltage" "substrate InnerVoltage" "substrate QuasiFermiPotential" "substrate DisplacementCurrent" "substrate eCurrent"
    "substrate hCurrent" "substrate TotalCurrent" "substrate Charge" "source OuterVoltage" "source InnerVoltage"
    "source QuasiFermiPotential" "source DisplacementCurrent" "source eCurrent" "source hCurrent" "source TotalCurrent"
    "source Charge" "drain OuterVoltage" "drain InnerVoltage" "drain QuasiFermiPotential" "drain DisplacementCurrent"
    "drain eCurrent" "drain hCurrent" "drain TotalCurrent" "drain Charge" "gate OuterVoltage"
    "gate InnerVoltage" "gate QuasiFermiPotential" "gate DisplacementCurrent" "gate eCurrent" "gate hCurrent"
    "gate TotalCurrent" "gate Charge" ]
  functions = [
    Time
    OuterVoltage InnerVoltage QuasiFermiPotential DisplacementCurrent eCurrent
    hCurrent TotalCurrent Charge OuterVoltage InnerVoltage
    QuasiFermiPotential DisplacementCurrent eCurrent hCurrent TotalCurrent
    Charge OuterVoltage InnerVoltage QuasiFermiPotential DisplacementCurrent
    eCurrent hCurrent TotalCurrent Charge OuterVoltage
    InnerVoltage QuasiFermiPotential DisplacementCurrent eCurrent hCurrent
    TotalCurrent Charge ]
}

Data {
      0.00000000000000E+00
      0.00000000000000E+00   0.00000000000000E+00   0.00000000000000E+00   0.00000000000000E+00  -5.68982263555709E-22
      7.57983073438704E-28  -5.68981505572636E-22  -2.55220572265375E-15   0.00000000000000E+00   0.00000000000000E+00
      0.00000000000000E+00   0.00000000000000E+00   9.81445839377596E-22  -3.89740620505890E-28   9.81445449636976E-22
      1.41012831228119E-15   0.00000000000000E+00   0.00000000000000E+00   0.00000000000000E+00   0.00000000000000E+00
     -4.12463575688954E-22  -3.68375386541278E-28  -4.12463944064340E-22   1.41012831228119E-15   0.00000000000000E+00
      0.00000000000000E+00   0.00000000000000E+00   0.00000000000000E+00   0.00000000000000E+00   0.00000000000000E+00
      0.00000000000000E+00  -2.68050901908618E-16
      1.00000000000000E-02
      0.00000000000000E+00   0.00000000000000E+00   0.00000000000000E+00   0.00000000000000E+00   4.85507745816936E-18
     -1.15063364558246E-16  -1.10208287100077E-16  -2.58065564650144E-15   0.00000000000000E+00   0.00000000000000E+00
      0.00000000000000E+00   0.00000000000000E+00  -1.06659350825832E-18  -1.46569045683258E-28  -1.06659350840489E-18
      1.41012034774913E-15   3.00000000000000E-02   3.00000000000000E-02   0.00000000000000E+00   0.00000000000000E+00
      1.11265224503842E-16   9.65610463926920E-21   1.11274880608482E-16   1.45011318168983E-15   0.00000000000000E+00
      0.00000000000000E+00   0.00000000000000E+00   0.00000000000000E+00   0.00000000000000E+00   0.00000000000000E+00
      0.00000000000000E+00  -2.79577882937519E-16
      2.33333333333333E-02
      0.00000000000000E+00   0.00000000000000E+00   0.00000000000000E+00   0.00000000000000E+00   4.35152709690542E-18
     -2.55472757596703E-16  -2.51121230499798E-16  -2.61827261575872E-15   0.00000000000000E+00   0.00000000000000E+00
      0.00000000000000E+00   0.00000000000000E+00  -1.21000316683605E-18   2.17590747635448E-28  -1.21000316661846E-18
      1.41010890244319E-15   7.00000000000000E-02   7.00000000000000E-02   0.00000000000000E+00   0.00000000000000E+00
      2.52318542639988E-16   1.26910264290616E-20   2.52331233666417E-16   1.50310818072573E-15   0.00000000000000E+00
      0.00000000000000E+00   0.00000000000000E+00   0.00000000000000E+00   0.00000000000000E+00   0.00000000000000E+00
      0.00000000000000E+00  -2.94944467410208E-16
      4.28888888888889E-02
      0.00000000000000E+00   0.00000000000000E+00   0.00000000000000E+00   0.00000000000000E+00  -1.78195894356995E-20
     -4.27643796613480E-16  -4.27661616202915E-16  -2.67278862364045E-15   0.00000000000000E+00   0.00000000000000E+00
      0.00000000000000E+00   0.00000000000000E+00  -1.12502159995497E-18  -2.58677368152397E-28  -1.12502160021365E-18
      1.41009015275715E-15   1.28666666666667E-01   1.28666666666667E-01   0.00000000000000E+00   0.00000000000000E+00
      4.28773580295797E-16   1.30575073319873E-20   4.28786637803129E-16   1.58018212566864E-15   0.00000000000000E+00
      0.00000000000000E+00   0.00000000000000E+00   0.00000000000000E+00   0.00000000000000E+00   0.00000000000000E+00
      0.00000000000000E+00  -3.17483654785345E-16
      6.78888888888889E-02
      0.00000000000000E+00   0.00000000000000E+00   0.00000000000000E+00   0.00000000000000E+00  -1.71951204135288E-20
     -5.65421836205430E-16  -5.65439031325844E-16  -2.74132585010280E-15   0.00000000000000E+00   0.00000000000000E+00
      0.00000000000000E+00   0.00000000000000E+00  -1.21081336766406E-18  -8.61627169118389E-29  -1.21081336775023E-18
      1.41006212518439E-15   2.03666666666667E-01   2.03666666666667E-01   0.00000000000000E+00   0.00000000000000E+00
      5.66636893049612E-16   1.29516439812197E-20   5.66649844693593E-16   1.67757925092714E-15   0.00000000000000E+00
      0.00000000000000E+00   0.00000000000000E+00   0.00000000000000E+00   0.00000000000000E+00   0.00000000000000E+00
      0.00000000000000E+00  -3.46315526008732E-16
      9.28888888888889E-02
      0.00000000000000E+00   0.00000000000000E+00   0.00000000000000E+00   0.00000000000000E+00  -1.77985391840831E-20
     -6.39518918748828E-16  -6.39536717288012E-16  -2.80852234591275E-15   0.00000000000000E+00   0.00000000000000E+00
      0.00000000000000E+00   0.00000000000000E+00  -1.35048914435188E-18  -2.17620377149558E-28  -1.35048914456950E-18
      1.41002868094770E-15   2.78666666666667E-01   2.78666666666667E-01   0.00000000000000E+00   0.00000000000000E+00
      6.40874227186595E-16   1.29792459864557E-20   6.40887206432581E-16   1.77367470292045E-15   0.00000000000000E+00
      0.00000000000000E+00   0.00000000000000E+00   0.00000000000000E+00   0.00000000000000E+00   0.00000000000000E+00
      0.00000000000000E+00  -3.75181037955396E-16
      1.17888888888889E-01
      0.00000000000000E+00   0.00000000000000E+00   0.00000000000000E+00   0.00000000000000E+00  -1.65380156654922E-20
     -6.78726636294584E-16  -6.78743174310250E-16  -2.87434990815308E-15   0.00000000000000E+00   0.00000000000000E+00
      0.00000000000000E+00   0.00000000000000E+00  -1.48870069460474E-18   5.29460482248181E-30  -1.48870069459944E-18
      1.40998919408422E-15   3.53666666666667E-01   3.53666666666667E-01   0.00000000000000E+00   0.00000000000000E+00
      6.80218866888451E-16   1.30081163981755E-20   6.80231875004849E-16   1.86844204823956E-15   0.00000000000000E+00
      0.00000000000000E+00   0.00000000000000E+00   0.00000000000000E+00   0.00000000000000E+00   0.00000000000000E+00
      0.00000000000000E+00  -4.04081334170710E-16
      1.42888888888889E-01
      0.00000000000000E+00   0.00000000000000E+00   0.00000000000000E+00   0.00000000000000E+00  -3.43121808576182E-20
     -7.06204059814340E-16  -7.06238371995198E-16  -2.93882651704218E-15   0.00000000000000E+00   0.00000000000000E+00
      0.00000000000000E+00   0.00000000000000E+00  -1.62538876713081E-18  -1.54891822179571E-28  -1.62538876728571E-18
      1.40994361801537E-15   4.28666666666667E-01   4.28666666666667E-01   0.00000000000000E+00   0.00000000000000E+00
      7.07850730844115E-16   1.30299183690435E-20   7.07863760762484E-16   1.96188275021537E-15   0.00000000000000E+00
      0.00000000000000E+00   0.00000000000000E+00   0.00000000000000E+00   0.00000000000000E+00   0.00000000000000E+00
      0.00000000000000E+00  -4.32999851188558E-16
      1.67888888888889E-01
      0.00000000000000E+00   0.00000000000000E+00   0.00000000000000E+00   0.00000000000000E+00  -1.94181067907204E-20
     -7.32316812917143E-16  -7.32336231023934E-16  -3.00198965200111E-15   0.00000000000000E+00   0.00000000000000E+00
      0.00000000000000E+00   0.00000000000000E+00  -1.75673035027746E-18   1.97972528545694E-29  -1.75673035025766E-18
      1.40989240051506E-15   5.03666666666667E-01   5.03666666666667E-01   0.00000000000000E+00   0.00000000000000E+00
      7.34079915431498E-16   1.30459426929154E-20   7.34092961374191E-16   2.05400723801967E-15   0.00000000000000E+00
      0.00000000000000E+00   0.00000000000000E+00   0.00000000000000E+00   0.00000000000000E+00   0.00000000000000E+00
      0.00000000000000E+00  -4.61909986533624E-16
      1.92888888888889E-01
      0.00000000000000E+00   0.00000000000000E+00   0.00000000000000E+00   0.00000000000000E+00  -1.64887840285430E-20
     -7.54444384894308E-16  -7.54460873678337E-16  -3.06382914374928E-15   0.00000000000000E+00   0.00000000000000E+00
      0.00000000000000E+00   0.00000000000000E+00  -1.89454321650026E-18   7.10600845788145E-29  -1.89454321642920E-18
      1.40983612338343E-15   5.78666666666667E-01   5.78666666666667E-01   0.00000000000000E+00   0.00000000000000E+00
      7.56342358900232E-16   1.30579945351084E-20   7.56355416894767E-16   2.14478030190631E-15   0.00000000000000E+00
      0.00000000000000E+00   0.00000000000000E+00   0.00000000000000E+00   0.00000000000000E+00   0.00000000000000E+00
      0.00000000000000E+00  -4.90787281540468E-16
      2.17888888888889E-01
      0.00000000000000E+00   0.00000000000000E+00   0.00000000000000E+00   0.00000000000000E+00  -1.59269995595401E-20
     -7.72022845111394E-16  -7.72038772110954E-16  -3.12422679522783E-15   0.00000000000000E+00   0.00000000000000E+00
      0.00000000000000E+00   0.00000000000000E+00  -2.04270256771428E-18   2.63298742262857E-28  -2.04270256745098E-18
      1.40977522321297E-15   6.53666666666667E-01   6.53666666666667E-01   0.00000000000000E+00   0.00000000000000E+00
      7.74068407783205E-16   1.30668952001487E-20   7.74081474678405E-16   2.23406680458480E-15   0.00000000000000E+00
      0.00000000000000E+00   0.00000000000000E+00   0.00000000000000E+00   0.00000000000000E+00   0.00000000000000E+00
      0.00000000000000E+00  -5.19615232569942E-16
      2.42888888888889E-01
      0.00000000000000E+00   0.00000000000000E+00   0.00000000000000E+00   0.00000000000000E+00  -1.61430374331966E-20
     -7.90449725616271E-16  -7.90465868653705E-16  -3.18292880210434E-15   0.00000000000000E+00   0.00000000000000E+00
      0.00000000000000E+00   0.00000000000000E+00  -2.20223365213718E-18   2.86628433501824E-28  -2.20223365185055E-18
      1.40970989619354E-15   7.28666666666667E-01   7.28666666666667E-01   0.00000000000000E+00   0.00000000000000E+00
      7.92655029631756E-16   1.30726737989429E-20   7.92668102305555E-16   2.32160330945292E-15   0.00000000000000E+00
      0.00000000000000E+00   0.00000000000000E+00   0.00000000000000E+00   0.00000000000000E+00   0.00000000000000E+00
      0.00000000000000E+00  -5.48384403542121E-16
      2.67888888888889E-01
      0.00000000000000E+00   0.00000000000000E+00   0.00000000000000E+00   0.00000000000000E+00  -1.71208464320148E-20
     -8.11985032703219E-16  -8.12002153549651E-16  -3.23959816810358E-15   0.00000000000000E+00   0.00000000000000E+00
      0.00000000000000E+00   0.00000000000000E+00  -2.37502945452792E-18   2.28114262356126E-28  -2.37502945429981E-18
      1.40964010116174E-15   8.03666666666667E-01   8.03666666666667E-01   0.00000000000000E+00   0.00000000000000E+00
      8.14364107144155E-16   1.30758597956083E-20   8.14377183003950E-16   2.40704764775867E-15   0.00000000000000E+00
      0.00000000000000E+00   0.00000000000000E+00   0.00000000000000E+00   0.00000000000000E+00   0.00000000000000E+00
      0.00000000000000E+00  -5.77089580816835E-16
      2.92888888888889E-01
      0.00000000000000E+00   0.00000000000000E+00   0.00000000000000E+00   0.00000000000000E+00  -1.82842108451373E-20
     -8.35821854295281E-16  -8.35840138506126E-16  -3.29402938596298E-15   0.00000000000000E+00   0.00000000000000E+00
      0.00000000000000E+00   0.00000000000000E+00  -2.56385543007805E-18   2.30352221964021E-29  -2.56385543005502E-18
      1.40956560102463E-15   8.78666666666667E-01   8.78666666666667E-01   0.00000000000000E+00   0.00000000000000E+00
      8.38390916001743E-16   1.30779344393158E-20   8.38403993936182E-16   2.49019126744953E-15   0.00000000000000E+00
      0.00000000000000E+00   0.00000000000000E+00   0.00000000000000E+00   0.00000000000000E+00   0.00000000000000E+00
      0.00000000000000E+00  -6.05727482511195E-16
      3.17888888888889E-01
      0.00000000000000E+00   0.00000000000000E+00   0.00000000000000E+00   0.00000000000000E+00  -1.69816306008065E-20
     -8.61421283831586E-16  -8.61438265462187E-16  -3.34641629464363E-15   0.00000000000000E+00   0.00000000000000E+00
      0.00000000000000E+00   0.00000000000000E+00  -2.77388978317238E-18   4.04075521030187E-28  -2.77388978276831E-18
      1.40948601466671E-15   9.53666666666667E-01   9.53666666666667E-01   0.00000000000000E+00   0.00000000000000E+00
      8.64199075594134E-16   1.30796508201313E-20   8.64212155244955E-16   2.57122575661995E-15   0.00000000000000E+00
      0.00000000000000E+00   0.00000000000000E+00   0.00000000000000E+00   0.00000000000000E+00   0.00000000000000E+00
      0.00000000000000E+00  -6.34295476643034E-16
      3.42888888888889E-01
      0.00000000000000E+00   0.00000000000000E+00   0.00000000000000E+00   0.00000000000000E+00  -1.78482597071949E-20
     -8.86739437125628E-16  -8.86757285385335E-16  -3.39729522315147E-15   0.00000000000000E+00   0.00000000000000E+00
      0.00000000000000E+00   0.00000000000000E+00  -3.00339472080109E-18   2.07693966618511E-28  -3.00339472059340E-18
      1.40940085711549E-15   1.02866666666667E+00   1.02866666666667E+00   0.00000000000000E+00   0.00000000000000E+00
      8.89747598850710E-16   1.30812552180082E-20   8.89760680105928E-16   2.65068557890583E-15   0.00000000000000E+00
      0.00000000000000E+00   0.00000000000000E+00   0.00000000000000E+00   0.00000000000000E+00   0.00000000000000E+00
      0.00000000000000E+00  -6.62791212869851E-16
      3.67888888888889E-01
      0.00000000000000E+00   0.00000000000000E+00   0.00000000000000E+00   0.00000000000000E+00  -1.84909648474154E-20
     -9.08852124418999E-16  -9.08870615383846E-16  -3.44719209615837E-15   0.00000000000000E+00   0.00000000000000E+00
      0.00000000000000E+00   0.00000000000000E+00  -3.25809731058015E-18   2.02060341771124E-28  -3.25809731037809E-18
      1.40930955177574E-15   1.10366666666667E+00   1.10366666666667E+00   0.00000000000000E+00   0.00000000000000E+00
      9.12115629863646E-16   1.30828305780849E-20   9.12128712694224E-16   2.72909555771071E-15   0.00000000000000E+00
      0.00000000000000E+00   0.00000000000000E+00   0.00000000000000E+00   0.00000000000000E+00   0.00000000000000E+00
      0.00000000000000E+00  -6.91213013328082E-16
      3.92888888888889E-01
      0.00000000000000E+00   0.00000000000000E+00   0.00000000000000E+00   0.00000000000000E+00  -1.75645469810568E-20
     -9.28731161172775E-16  -9.28748725719756E-16  -3.49642608648325E-15   0.00000000000000E+00   0.00000000000000E+00
      0.00000000000000E+00   0.00000000000000E+00  -3.54321022410113E-18   7.29041053788125E-29  -3.54321022402823E-18
      1.40921141051305E-15   1.17866666666667E+00   1.17866666666667E+00   0.00000000000000E+00   0.00000000000000E+00
      9.32278851547148E-16   1.30843966363385E-20   9.32291935943784E-16   2.80677545336907E-15   0.00000000000000E+00
      0.00000000000000E+00   0.00000000000000E+00   0.00000000000000E+00   0.00000000000000E+00   0.00000000000000E+00
      0.00000000000000E+00  -7.19560777398864E-16
      4.17888888888889E-01
      0.00000000000000E+00   0.00000000000000E+00   0.00000000000000E+00   0.00000000000000E+00  -1.73186295094961E-20
     -9.50675459596185E-16  -9.50692778225695E-16  -3.54515245486200E-15   0.00000000000000E+00   0.00000000000000E+00
      0.00000000000000E+00   0.00000000000000E+00  -3.86094918586074E-18   5.00071366296811E-28  -3.86094918536067E-18
      1.40910559075336E-15   1.25366666666667E+00   1.25366666666667E+00   0.00000000000000E+00   0.00000000000000E+00
      9.54540641464771E-16   1.30859462852435E-20   9.54553727411057E-16   2.88388382453834E-15   0.00000000000000E+00
      0.00000000000000E+00   0.00000000000000E+00   0.00000000000000E+00   0.00000000000000E+00   0.00000000000000E+00
      0.00000000000000E+00  -7.47836960429699E-16
      4.42888888888889E-01
      0.00000000000000E+00   0.00000000000000E+00   0.00000000000000E+00   0.00000000000000E+00  -1.78551742045155E-20
     -9.77911934744151E-16  -9.77929789918355E-16  -3.59344833981727E-15   0.00000000000000E+00   0.00000000000000E+00
      0.00000000000000E+00   0.00000000000000E+00  -4.21646346367277E-18  -4.04734476641294E-29  -4.21646346371325E-18
      1.40899104406440E-15   1.32866666666667E+00   1.32866666666667E+00   0.00000000000000E+00   0.00000000000000E+00
      9.82133165920331E-16   1.30874617383203E-20   9.82146253382070E-16   2.96050436040998E-15   0.00000000000000E+00
      0.00000000000000E+00   0.00000000000000E+00   0.00000000000000E+00   0.00000000000000E+00   0.00000000000000E+00
      0.00000000000000E+00  -7.76047064657107E-16
      4.67888888888889E-01
      0.00000000000000E+00   0.00000000000000E+00   0.00000000000000E+00   0.00000000000000E+00  -1.67875133109930E-20
     -1.00983046691537E-15  -1.00984725442868E-15  -3.64135826222984E-15   0.00000000000000E+00   0.00000000000000E+00
      0.00000000000000E+00   0.00000000000000E+00  -4.61847839473648E-18  -1.04281271301747E-28  -4.61847839484076E-18
      1.40886646548008E-15   1.40366666666667E+00   1.40366666666667E+00   0.00000000000000E+00   0.00000000000000E+00
      1.01445264388575E-15   1.30889377789677E-20   1.01446573282353E-15   3.03669106980772E-15   0.00000000000000E+00
      0.00000000000000E+00   0.00000000000000E+00   0.00000000000000E+00   0.00000000000000E+00   0.00000000000000E+00
      0.00000000000000E+00  -8.04199273057966E-16
      4.92888888888889E-01
      0.00000000000000E+00   0.00000000000000E+00   0.00000000000000E+00   0.00000000000000E+00  -1.75881849288749E-20
     -1.04384286072905E-15  -1.04386044891397E-15  -3.68891044361324E-15   0.00000000000000E+00   0.00000000000000E+00
      0.00000000000000E+00   0.00000000000000E+00  -5.07141288074002E-18  -7.60572623297451E-29  -5.07141288081608E-18
      1.40873024387329E-15   1.47866666666667E+00   1.47866666666667E+00   0.00000000000000E+00   0.00000000000000E+00
      1.04891877141446E-15   1.30903803313638E-20   1.04893186179479E-15   3.11248354284684E-15   0.00000000000000E+00
      0.00000000000000E+00   0.00000000000000E+00   0.00000000000000E+00   0.00000000000000E+00   0.00000000000000E+00
      0.00000000000000E+00  -8.32303343106890E-16
      5.17888888888889E-01
      0.00000000000000E+00   0.00000000000000E+00   0.00000000000000E+00   0.00000000000000E+00  -1.75075423442129E-20
     -1.08036853699784E-15  -1.08038604454019E-15  -3.73612236655842E-15   0.00000000000000E+00   0.00000000000000E+00
      0.00000000000000E+00   0.00000000000000E+00  -5.58796893885257E-18  -1.56008754436444E-28  -5.58796893900858E-18
      1.40858040771533E-15   1.55366666666667E+00   1.55366666666667E+00   0.00000000000000E+00   0.00000000000000E+00
      1.08596092167956E-15   1.30917996367033E-20   1.08597401347919E-15   3.18791122514691E-15   0.00000000000000E+00
      0.00000000000000E+00   0.00000000000000E+00   0.00000000000000E+00   0.00000000000000E+00   0.00000000000000E+00
      0.00000000000000E+00  -8.60369266303820E-16
      5.42888888888889E-01
      0.00000000000000E+00   0.00000000000000E+00   0.00000000000000E+00   0.00000000000000E+00  -1.75884702845928E-20
     -1.12690431315170E-15  -1.12692190162199E-15  -3.78300311115391E-15   0.00000000000000E+00   0.00000000000000E+00
      0.00000000000000E+00   0.00000000000000E+00  -6.17933620096497E-18  -1.77268686100522E-28  -6.17933620114224E-18
      1.40841456020528E-15   1.62866666666667E+00   1.62866666666667E+00   0.00000000000000E+00   0.00000000000000E+00
      1.13308814461344E-15   1.30932096910918E-20   1.13310123782313E-15   3.26299472310841E-15   0.00000000000000E+00
      0.00000000000000E+00   0.00000000000000E+00   0.00000000000000E+00   0.00000000000000E+00   0.00000000000000E+00
      0.00000000000000E+00  -8.88406172159773E-16
      5.67888888888889E-01
      0.00000000000000E+00   0.00000000000000E+00   0.00000000000000E+00   0.00000000000000E+00  -1.68689401248235E-20
     -1.19920720433350E-15  -1.19922407327362E-15  -3.82955409177852E-15   0.00000000000000E+00   0.00000000000000E+00
      0.00000000000000E+00   0.00000000000000E+00  -6.86188413632853E-18  -3.94393884247476E-28  -6.86188413672292E-18
      1.40822980258189E-15   1.70366666666667E+00   1.70366666666667E+00   0.00000000000000E+00   0.00000000000000E+00
      1.20607286278652E-15   1.30946238279043E-20   1.20608595741035E-15   3.33774593327140E-15   0.00000000000000E+00
      0.00000000000000E+00   0.00000000000000E+00   0.00000000000000E+00   0.00000000000000E+00   0.00000000000000E+00
      0.00000000000000E+00  -9.16421644074767E-16
      5.92888888888889E-01
      0.00000000000000E+00   0.00000000000000E+00   0.00000000000000E+00   0.00000000000000E+00   9.60105844148652E-20
     -1.30813804935485E-15  -1.30804203877044E-15  -3.87576857920406E-15   0.00000000000000E+00   0.00000000000000E+00
      0.00000000000000E+00   0.00000000000000E+00  -7.76617665124489E-18   5.68048438255712E-26  -7.76617659444005E-18
      1.40802265444246E-15   1.77866666666667E+00   1.77866666666667E+00   0.00000000000000E+00   0.00000000000000E+00
      1.31579512535377E-15   1.30900111075087E-20   1.31580821536488E-15   3.41216726312438E-15   0.00000000000000E+00
      0.00000000000000E+00   0.00000000000000E+00   0.00000000000000E+00   0.00000000000000E+00   0.00000000000000E+00
      0.00000000000000E+00  -9.44421338362787E-16
      6.17888888888889E-01
      0.00000000000000E+00   0.00000000000000E+00   0.00000000000000E+00   0.00000000000000E+00   1.45578763498974E-19
     -1.43179868114415E-15  -1.43165310238065E-15  -3.92163082823238E-15   0.00000000000000E+00   0.00000000000000E+00
      0.00000000000000E+00   0.00000000000000E+00  -8.74092779362223E-18   9.05799043275532E-26  -8.74092770304233E-18
      1.40778899648204E-15   1.85366666666667E+00   1.85366666666667E+00   0.00000000000000E+00   0.00000000000000E+00
      1.44038096093019E-15   1.30691535065173E-20   1.44039403008369E-15   3.48625053741843E-15   0.00000000000000E+00
      0.00000000000000E+00   0.00000000000000E+00   0.00000000000000E+00   0.00000000000000E+00   0.00000000000000E+00
      0.00000000000000E+00  -9.72408705668096E-16
      6.42888888888889E-01
      0.00000000000000E+00   0.00000000000000E+00   0.00000000000000E+00   0.00000000000000E+00  -1.89221004199737E-20
     -1.53395754576967E-15  -1.53397646787009E-15  -3.96711609591705E-15   0.00000000000000E+00   0.00000000000000E+00
      0.00000000000000E+00   0.00000000000000E+00  -9.66604150461877E-18  -4.38846421713004E-28  -9.66604150505762E-18
      1.40752408048289E-15   1.92866666666667E+00   1.92866666666667E+00   0.00000000000000E+00   0.00000000000000E+00
      1.54362941040745E-15   1.30989676919127E-20   1.54364250937514E-15   3.55997673077163E-15   0.00000000000000E+00
      0.00000000000000E+00   0.00000000000000E+00   0.00000000000000E+00   0.00000000000000E+00   0.00000000000000E+00
      0.00000000000000E+00  -1.00038471533747E-15
      6.67888888888889E-01
      0.00000000000000E+00   0.00000000000000E+00   0.00000000000000E+00   0.00000000000000E+00  -1.81509964678818E-20
     -1.60660411455305E-15  -1.60662226554952E-15  -4.01219294558377E-15   0.00000000000000E+00   0.00000000000000E+00
      0.00000000000000E+00   0.00000000000000E+00  -1.09594479068381E-17  -6.56640355724729E-29  -1.09594479069037E-17
      1.40722265313396E-15   2.00366666666667E+00   2.00366666666667E+00   0.00000000000000E+00   0.00000000000000E+00
      1.61756861299333E-15   1.31004630946627E-20   1.61758171345642E-15   3.63331810777591E-15   0.00000000000000E+00
      0.00000000000000E+00   0.00000000000000E+00   0.00000000000000E+00   0.00000000000000E+00   0.00000000000000E+00
      0.00000000000000E+00  -1.02834781532611E-15
      6.92888888888889E-01
      0.00000000000000E+00   0.00000000000000E+00   0.00000000000000E+00   0.00000000000000E+00  -1.67778724392235E-20
     -1.65692044879531E-15  -1.65693722666775E-15  -4.05682910194844E-15   0.00000000000000E+00   0.00000000000000E+00
      0.00000000000000E+00   0.00000000000000E+00  -1.25040083102748E-17   1.43963634960353E-28  -1.25040083101309E-17
      1.40687918025468E-15   2.07866666666667E+00   2.07866666666667E+00   0.00000000000000E+00   0.00000000000000E+00
      1.66942813299203E-15   1.31019858539329E-20   1.66944123497788E-15   3.70624484938010E-15   0.00000000000000E+00
      0.00000000000000E+00   0.00000000000000E+00   0.00000000000000E+00   0.00000000000000E+00   0.00000000000000E+00
      0.00000000000000E+00  -1.05629492768635E-15
      7.17888888888889E-01
      0.00000000000000E+00   0.00000000000000E+00   0.00000000000000E+00   0.00000000000000E+00  -1.60598221741190E-20
     -1.68998378350598E-15  -1.68999984332815E-15  -4.10100091520229E-15   0.00000000000000E+00   0.00000000000000E+00
      0.00000000000000E+00   0.00000000000000E+00  -1.43565119606546E-17   6.96350007221279E-30  -1.43565119606476E-17
      1.40648802444728E-15   2.15366666666667E+00   2.15366666666667E+00   0.00000000000000E+00   0.00000000000000E+00
      1.70434325175437E-15   1.31035344244974E-20   1.70435635528880E-15   3.77873734965851E-15   0.00000000000000E+00
      0.00000000000000E+00   0.00000000000000E+00   0.00000000000000E+00   0.00000000000000E+00   0.00000000000000E+00
      0.00000000000000E+00  -1.08422445890350E-15
      7.42888888888889E-01
      0.00000000000000E+00   0.00000000000000E+00   0.00000000000000E+00   0.00000000000000E+00  -1.69981727338172E-20
     -1.71133911094712E-15  -1.71135610911985E-15  -4.14470255013018E-15   0.00000000000000E+00   0.00000000000000E+00
      0.00000000000000E+00   0.00000000000000E+00  -1.65877403477015E-17  -1.84432888124473E-28  -1.65877403478859E-17
      1.40604341416459E-15   2.22866666666667E+00   2.22866666666667E+00   0.00000000000000E+00   0.00000000000000E+00
      1.72793074436483E-15   1.31051029130877E-20   1.72794384946774E-15   3.85079954438065E-15   0.00000000000000E+00
      0.00000000000000E+00   0.00000000000000E+00   0.00000000000000E+00   0.00000000000000E+00   0.00000000000000E+00
      0.00000000000000E+00  -1.11214040841507E-15
      7.67888888888889E-01
      0.00000000000000E+00   0.00000000000000E+00   0.00000000000000E+00   0.00000000000000E+00  -1.88301148779503E-20
     -1.72756236638887E-15  -1.72758119650375E-15  -4.18794737676646E-15   0.00000000000000E+00   0.00000000000000E+00
      0.00000000000000E+00   0.00000000000000E+00  -1.92893223766657E-17   4.17376983679985E-28  -1.92893223762483E-17
      1.40553940719930E-15   2.30366666666667E+00   2.30366666666667E+00   0.00000000000000E+00   0.00000000000000E+00
      1.74685741219625E-15   1.31066837463038E-20   1.74687051888000E-15   3.92246125403419E-15   0.00000000000000E+00
      0.00000000000000E+00   0.00000000000000E+00   0.00000000000000E+00   0.00000000000000E+00   0.00000000000000E+00
      0.00000000000000E+00  -1.14005328446703E-15
      7.92888888888889E-01
      0.00000000000000E+00   0.00000000000000E+00   0.00000000000000E+00   0.00000000000000E+00  -1.81328893410328E-20
     -1.74460991869770E-15  -1.74462805158704E-15  -4.23075964321048E-15   0.00000000000000E+00   0.00000000000000E+00
      0.00000000000000E+00   0.00000000000000E+00  -2.25789315941046E-17   4.54180731381359E-28  -2.25789315936504E-17
      1.40497028162775E-15   2.37866666666667E+00   2.37866666666667E+00   0.00000000000000E+00   0.00000000000000E+00
      1.76719387490863E-15   1.31082720640691E-20   1.76720698318069E-15   3.99376467587440E-15   0.00000000000000E+00
      0.00000000000000E+00   0.00000000000000E+00   0.00000000000000E+00   0.00000000000000E+00   0.00000000000000E+00
      0.00000000000000E+00  -1.16797531429167E-15
      8.17888888888889E-01
      0.00000000000000E+00   0.00000000000000E+00   0.00000000000000E+00   0.00000000000000E+00  -1.97145222872426E-20
     -1.76684711220626E-15  -1.76686682672855E-15  -4.27316454121315E-15   0.00000000000000E+00   0.00000000000000E+00
      0.00000000000000E+00   0.00000000000000E+00  -2.65932940380612E-17  -4.02336815637628E-28  -2.65932940384635E-17
      1.40433119470893E-15   2.45366666666667E+00   2.45366666666667E+00   0.00000000000000E+00   0.00000000000000E+00
      1.79344701089947E-15   1.31098675393987E-20   1.79346012076701E-15   4.06474784230610E-15   0.00000000000000E+00
      0.00000000000000E+00   0.00000000000000E+00   0.00000000000000E+00   0.00000000000000E+00   0.00000000000000E+00
      0.00000000000000E+00  -1.19591449580188E-15
      8.42888888888889E-01
      0.00000000000000E+00   0.00000000000000E+00   0.00000000000000E+00   0.00000000000000E+00  -1.86247059823005E-20
     -1.79618937493296E-15  -1.79620799963894E-15  -4.31518323019635E-15   0.00000000000000E+00   0.00000000000000E+00
      0.00000000000000E+00   0.00000000000000E+00  -3.15128880216865E-17   2.59234586101300E-28  -3.15128880214272E-17
      1.40361850849033E-15   2.52866666666667E+00   2.52866666666667E+00   0.00000000000000E+00   0.00000000000000E+00
      1.82770777618663E-15   1.31114737393462E-20   1.82772088766037E-15   4.13543735149177E-15   0.00000000000000E+00
      0.00000000000000E+00   0.00000000000000E+00   0.00000000000000E+00   0.00000000000000E+00   0.00000000000000E+00
      0.00000000000000E+00  -1.22387262978575E-15
      8.67888888888889E-01
      0.00000000000000E+00   0.00000000000000E+00   0.00000000000000E+00   0.00000000000000E+00  -1.78538109728003E-20