DF-ISE text

Info {
  version   = 1.0
  type      = xyplot
  datasets  = [
    "time"
    "substrate OuterVoltage" "substrate InnerVoltage" "substrate QuasiFermiPotential" "substrate DisplacementCurrent" "substrate eCurrent"
    "substrate hCurrent" "substrate TotalCurrent" "substrate Charge" "source OuterVoltage" "source InnerVoltage"
    "source QuasiFermiPotential" "source DisplacementCurrent" "source eCurrent" "source hCurrent" "source TotalCurrent"
    "source Charge" "drain OuterVoltage" "drain InnerVoltage" "drain QuasiFermiPotential" "drain DisplacementCurrent"
    "drain eCurrent" "drain hCurrent" "drain TotalCurrent" "drain Charge" "gate OuterVoltage"
    "gate InnerVoltage" "gate QuasiFermiPotential" "gate DisplacementCurrent" "gate eCurrent" "gate hCurrent"
    "gate TotalCurrent" "gate Charge" ]
  functions = [
    Time
    OuterVoltage InnerVoltage QuasiFermiPotential DisplacementCurrent eCurrent
    hCurrent TotalCurrent Charge OuterVoltage InnerVoltage
    QuasiFermiPotential DisplacementCurrent eCurrent hCurrent TotalCurrent
    Charge OuterVoltage InnerVoltage QuasiFermiPotential DisplacementCurrent
    eCurrent hCurrent TotalCurrent Charge OuterVoltage
    InnerVoltage QuasiFermiPotential DisplacementCurrent eCurrent hCurrent
    TotalCurrent Charge ]
}

Data {
      0.00000000000000E+00
      0.00000000000000E+00   0.00000000000000E+00   0.00000000000000E+00   0.00000000000000E+00  -8.40868180811255E-19
     -1.71665555770140E-27  -8.40868182527911E-19  -4.03836987051548E-15   0.00000000000000E+00   0.00000000000000E+00
      0.00000000000000E+00   0.00000000000000E+00   6.18673396814728E-19   4.11421203307122E-27   6.18673400928940E-19
      1.54316243187252E-15   0.00000000000000E+00   0.00000000000000E+00   0.00000000000000E+00   0.00000000000000E+00
      2.22194783996369E-19  -2.39739749747565E-27   2.22194781598971E-19   1.54316243187252E-15   1.00000000000000E+00
      1.00000000000000E+00   0.00000000000000E+00   0.00000000000000E+00   0.00000000000000E+00   0.00000000000000E+00
      0.00000000000000E+00   9.52045006770434E-16
      1.00000000000000E-02
      0.00000000000000E+00   0.00000000000000E+00   0.00000000000000E+00   0.00000000000000E+00   8.29453145317208E-17
     -3.05077708162186E-17   5.24375437155021E-17  -4.07231872936993E-15   0.00000000000000E+00   0.00000000000000E+00
      0.00000000000000E+00   0.00000000000000E+00  -7.57868383312446E-16   1.08383405201840E-27  -7.57868383311363E-16
      1.54316243186623E-15   3.00000000000000E-02   3.00000000000000E-02   0.00000000000000E+00   0.00000000000000E+00
      7.05406100164467E-16   2.47394313930969E-20   7.05430839595860E-16   1.58045969950522E-15   1.00000000000000E+00
      1.00000000000000E+00   0.00000000000000E+00   0.00000000000000E+00   0.00000000000000E+00   0.00000000000000E+00
      0.00000000000000E+00   9.48696597998478E-16
      2.33333333333333E-02
      0.00000000000000E+00   0.00000000000000E+00   0.00000000000000E+00   0.00000000000000E+00  -1.13424618101329E-19
     -6.23122082312648E-17  -6.24256328493661E-17  -4.11689585791684E-15   0.00000000000000E+00   0.00000000000000E+00
      0.00000000000000E+00   0.00000000000000E+00  -9.94523905618047E-16   3.71220686492982E-27  -9.94523905614335E-16
      1.54316243185806E-15   7.00000000000000E-02   7.00000000000000E-02   0.00000000000000E+00   0.00000000000000E+00
      1.05691741368458E-15   3.21247791185967E-20   1.05694953846370E-15   1.62939668827660E-15   1.00000000000000E+00
      1.00000000000000E+00   0.00000000000000E+00   0.00000000000000E+00   0.00000000000000E+00   0.00000000000000E+00
      0.00000000000000E+00   9.44336737782179E-16
      4.24444444444445E-02
      0.00000000000000E+00   0.00000000000000E+00   0.00000000000000E+00   0.00000000000000E+00  -1.25648056296543E-16
     -1.11577052720249E-16  -2.37225109016792E-16  -4.17936875900056E-15   0.00000000000000E+00   0.00000000000000E+00
      0.00000000000000E+00   0.00000000000000E+00  -1.02808763624170E-15   5.37081631786291E-27  -1.02808763623633E-15
      1.54316243184667E-15   1.27333333333333E-01   1.27333333333333E-01   0.00000000000000E+00   0.00000000000000E+00
      1.26529054998204E-15   2.21952710803602E-20   1.26531274525312E-15   1.69793004824665E-15   1.00000000000000E+00
      1.00000000000000E+00   0.00000000000000E+00   0.00000000000000E+00   0.00000000000000E+00   0.00000000000000E+00
      0.00000000000000E+00   9.38276278907237E-16
      6.74444444444444E-02
      0.00000000000000E+00   0.00000000000000E+00   0.00000000000000E+00   0.00000000000000E+00  -3.24609963523906E-19
     -2.17682788292074E-16  -2.18007398255598E-16  -4.25850533398392E-15   0.00000000000000E+00   0.00000000000000E+00
      0.00000000000000E+00   0.00000000000000E+00  -1.03206380324572E-15   2.20835743719061E-27  -1.03206380324351E-15
      1.54316243183211E-15   2.02333333333333E-01   2.02333333333333E-01   0.00000000000000E+00   0.00000000000000E+00
      1.25006529564708E-15   5.90585202719699E-21   1.25007120149911E-15   1.78472775587818E-15   1.00000000000000E+00
      1.00000000000000E+00   0.00000000000000E+00   0.00000000000000E+00   0.00000000000000E+00   0.00000000000000E+00
      0.00000000000000E+00   9.30615146273627E-16
      9.24444444444444E-02
      0.00000000000000E+00   0.00000000000000E+00   0.00000000000000E+00   0.00000000000000E+00  -2.99245796000761E-19
     -3.50416724173381E-16  -3.50715969969382E-16  -4.33491041024473E-15   0.00000000000000E+00   0.00000000000000E+00
      0.00000000000000E+00   0.00000000000000E+00  -1.03706791513184E-15  -3.01290598471239E-27  -1.03706791513485E-15
      1.54316243181769E-15   2.77333333333333E-01   2.77333333333333E-01   0.00000000000000E+00   0.00000000000000E+00
      1.38774794782860E-15   3.59372756314690E-20   1.38778388510424E-15   1.86859845235758E-15   1.00000000000000E+00
      1.00000000000000E+00   0.00000000000000E+00   0.00000000000000E+00   0.00000000000000E+00   0.00000000000000E+00
      0.00000000000000E+00   9.23149526069453E-16
      1.17444444444444E-01
      0.00000000000000E+00   0.00000000000000E+00   0.00000000000000E+00   0.00000000000000E+00  -5.03715161714181E-19
     -4.38055160686270E-16  -4.38558875847984E-16  -4.40916411422324E-15   0.00000000000000E+00   0.00000000000000E+00
      0.00000000000000E+00   0.00000000000000E+00  -1.04136493373486E-15  -9.96502211905341E-27  -1.04136493374483E-15
      1.54316243180323E-15   3.52333333333333E-01   3.52333333333333E-01   0.00000000000000E+00   0.00000000000000E+00
      1.47988749707607E-15   3.63125167436618E-20   1.47992380959281E-15   1.95020666007172E-15   1.00000000000000E+00
      1.00000000000000E+00   0.00000000000000E+00   0.00000000000000E+00   0.00000000000000E+00   0.00000000000000E+00
      0.00000000000000E+00   9.15795022348275E-16
      1.42444444444444E-01
      0.00000000000000E+00   0.00000000000000E+00   0.00000000000000E+00   0.00000000000000E+00  -2.59710644489147E-19
     -4.84359658938267E-16  -4.84619369582757E-16  -4.48192606890693E-15   0.00000000000000E+00   0.00000000000000E+00
      0.00000000000000E+00   0.00000000000000E+00  -1.04595948906381E-15   9.31798788129907E-27  -1.04595948905450E-15
      1.54316243178862E-15   4.27333333333333E-01   4.27333333333333E-01   0.00000000000000E+00   0.00000000000000E+00
      1.53054198685218E-15   3.68717850676264E-20   1.53057885863725E-15   2.03024856242679E-15   1.00000000000000E+00
      1.00000000000000E+00   0.00000000000000E+00   0.00000000000000E+00   0.00000000000000E+00   0.00000000000000E+00
      0.00000000000000E+00   9.08515074691515E-16
      1.67444444444444E-01
      0.00000000000000E+00   0.00000000000000E+00   0.00000000000000E+00   0.00000000000000E+00  -5.55812286315697E-20
     -5.20451375639438E-16  -5.20506956868070E-16  -4.55366991993722E-15   0.00000000000000E+00   0.00000000000000E+00
      0.00000000000000E+00   0.00000000000000E+00  -1.05039429843402E-15  -3.53863597206295E-27  -1.05039429843756E-15
      1.54316243177384E-15   5.02333333333333E-01   5.02333333333333E-01   0.00000000000000E+00   0.00000000000000E+00
      1.57086439977416E-15   3.68555314706999E-20   1.57090125530563E-15   2.10920437396398E-15   1.00000000000000E+00
      1.00000000000000E+00   0.00000000000000E+00   0.00000000000000E+00   0.00000000000000E+00   0.00000000000000E+00
      0.00000000000000E+00   9.01303114199390E-16
      1.92444444444444E-01
      0.00000000000000E+00   0.00000000000000E+00   0.00000000000000E+00   0.00000000000000E+00  -8.14371924863738E-20
     -5.52776029128268E-16  -5.52857466320755E-16  -4.62465669904929E-15   0.00000000000000E+00   0.00000000000000E+00
      0.00000000000000E+00   0.00000000000000E+00  -1.05446375048232E-15   7.32544346384466E-27  -1.05446375047500E-15
      1.54316243175892E-15   5.77333333333333E-01   5.77333333333333E-01   0.00000000000000E+00   0.00000000000000E+00
      1.60728437884887E-15   3.68379468813568E-20   1.60732121679575E-15   2.18732804068137E-15   1.00000000000000E+00
      1.00000000000000E+00   0.00000000000000E+00   0.00000000000000E+00   0.00000000000000E+00   0.00000000000000E+00
      0.00000000000000E+00   8.94166226609002E-16
      2.17444444444444E-01
      0.00000000000000E+00   0.00000000000000E+00   0.00000000000000E+00   0.00000000000000E+00   4.07959804349956E-20
     -5.83762515515729E-16  -5.83721719535294E-16  -4.69500520696046E-15   0.00000000000000E+00   0.00000000000000E+00
      0.00000000000000E+00   0.00000000000000E+00  -1.05854444944235E-15   1.44314811917444E-27  -1.05854444944091E-15
      1.54316243174388E-15   6.52333333333333E-01   6.52333333333333E-01   0.00000000000000E+00   0.00000000000000E+00
      1.64222934981112E-15   3.68191650867938E-20   1.64226616897620E-15   2.26472674431530E-15   1.00000000000000E+00
      1.00000000000000E+00   0.00000000000000E+00   0.00000000000000E+00   0.00000000000000E+00   0.00000000000000E+00
      0.00000000000000E+00   8.87116030901274E-16
      2.42444444444444E-01
      0.00000000000000E+00   0.00000000000000E+00   0.00000000000000E+00   0.00000000000000E+00  -2.20071706403862E-19
     -6.16715010971653E-16  -6.16935082678057E-16  -4.76475713713935E-15   0.00000000000000E+00   0.00000000000000E+00
      0.00000000000000E+00   0.00000000000000E+00  -1.06210816644984E-15  -1.04631418932087E-27  -1.06210816645089E-15
      1.54316243172878E-15   7.27333333333333E-01   7.27333333333333E-01   0.00000000000000E+00   0.00000000000000E+00
      1.67900644906564E-15   3.68000633009903E-20   1.67904324912894E-15   2.34143329704116E-15   1.00000000000000E+00
      1.00000000000000E+00   0.00000000000000E+00   0.00000000000000E+00   0.00000000000000E+00   0.00000000000000E+00
      0.00000000000000E+00   8.80161408369407E-16
      2.67444444444444E-01
      0.00000000000000E+00   0.00000000000000E+00   0.00000000000000E+00   0.00000000000000E+00  -5.60910954580018E-19
     -6.53661524399455E-16  -6.54222435354035E-16  -4.83392106867384E-15   0.00000000000000E+00   0.00000000000000E+00
      0.00000000000000E+00   0.00000000000000E+00  -1.06546437778834E-15   6.53314811372084E-27  -1.06546437778181E-15
      1.54316243171361E-15   8.02333333333333E-01   8.02333333333333E-01   0.00000000000000E+00   0.00000000000000E+00
      1.71965003155675E-15   3.67815790896119E-20   1.71968681313584E-15   2.41745808561162E-15   1.00000000000000E+00
      1.00000000000000E+00   0.00000000000000E+00   0.00000000000000E+00   0.00000000000000E+00   0.00000000000000E+00
      0.00000000000000E+00   8.73300551348598E-16
      2.92444444444444E-01
      0.00000000000000E+00   0.00000000000000E+00   0.00000000000000E+00   0.00000000000000E+00   2.33727857606668E-19
     -6.99692832348217E-16  -6.99459104490610E-16  -4.90249732965753E-15   0.00000000000000E+00   0.00000000000000E+00
      0.00000000000000E+00   0.00000000000000E+00  -1.06984631392828E-15  -7.26516220059577E-27  -1.06984631393554E-15
      1.54316243169835E-15   8.77333333333333E-01   8.77333333333334E-01   0.00000000000000E+00   0.00000000000000E+00
      1.76926865341553E-15   3.67650106248865E-20   1.76930541842615E-15   2.49281821141634E-15   1.00000000000000E+00
      1.00000000000000E+00   0.00000000000000E+00   0.00000000000000E+00   0.00000000000000E+00   0.00000000000000E+00
      0.00000000000000E+00   8.66516686542837E-16
      3.17444444444444E-01
      0.00000000000000E+00   0.00000000000000E+00   0.00000000000000E+00   0.00000000000000E+00   2.83727657350702E-19
     -7.60485998192641E-16  -7.60202270535291E-16  -4.97048360025773E-15   0.00000000000000E+00   0.00000000000000E+00
      0.00000000000000E+00   0.00000000000000E+00  -1.07339820061679E-15  -6.63819410374006E-28  -1.07339820061745E-15
      1.54316243168291E-15   9.52333333333333E-01   9.52333333333333E-01   0.00000000000000E+00   0.00000000000000E+00
      1.83356371893939E-15   3.67522133561331E-20   1.83360047115274E-15   2.56753761397390E-15   1.00000000000000E+00
      1.00000000000000E+00   0.00000000000000E+00   0.00000000000000E+00   0.00000000000000E+00   0.00000000000000E+00
      0.00000000000000E+00   8.59783554600921E-16
      3.42444444444444E-01
      0.00000000000000E+00   0.00000000000000E+00   0.00000000000000E+00   0.00000000000000E+00   3.59779412302475E-19
     -8.40194324135565E-16  -8.39834544723262E-16  -5.03786608063788E-15   0.00000000000000E+00   0.00000000000000E+00
      0.00000000000000E+00   0.00000000000000E+00  -1.07691632404922E-15   8.70701739663175E-27  -1.07691632404051E-15
      1.54316243166722E-15   1.02733333333333E+00   1.02733333333333E+00   0.00000000000000E+00   0.00000000000000E+00
      1.91671412448956E-15   3.67442742168801E-20   1.91675086876377E-15   2.64162736788648E-15   1.00000000000000E+00
      1.00000000000000E+00   0.00000000000000E+00   0.00000000000000E+00   0.00000000000000E+00   0.00000000000000E+00
      0.00000000000000E+00   8.53076281084179E-16
      3.67444444444445E-01
      0.00000000000000E+00   0.00000000000000E+00   0.00000000000000E+00   0.00000000000000E+00  -1.47361340221060E-19
     -9.40889778791499E-16  -9.41037140131720E-16  -5.10460534133161E-15   0.00000000000000E+00   0.00000000000000E+00
      0.00000000000000E+00   0.00000000000000E+00  -1.07978286172847E-15  -3.83129936759860E-27  -1.07978286173230E-15
      1.54316243165123E-15   1.10233333333333E+00   1.10233333333333E+00   0.00000000000000E+00   0.00000000000000E+00
      2.02078326104985E-15   3.67408141734481E-20   2.02082000186402E-15   2.71506528517241E-15   1.00000000000000E+00
      1.00000000000000E+00   0.00000000000000E+00   0.00000000000000E+00   0.00000000000000E+00   0.00000000000000E+00
      0.00000000000000E+00   8.46377624507964E-16
      3.92444444444445E-01
      0.00000000000000E+00   0.00000000000000E+00   0.00000000000000E+00   0.00000000000000E+00  -2.01363762549978E-19
     -1.06596204122300E-15  -1.06616340498555E-15  -5.17062308258332E-15   0.00000000000000E+00   0.00000000000000E+00
      0.00000000000000E+00   0.00000000000000E+00  -1.08305612749886E-15  -3.12592135551687E-28  -1.08305612749917E-15
      1.54316243163490E-15   1.17733333333333E+00   1.17733333333333E+00   0.00000000000000E+00   0.00000000000000E+00
      2.14918279137692E-15   3.67411077975112E-20   2.14921953248471E-15   2.78778284094592E-15   1.00000000000000E+00
      1.00000000000000E+00   0.00000000000000E+00   0.00000000000000E+00   0.00000000000000E+00   0.00000000000000E+00
      0.00000000000000E+00   8.39677810002501E-16
      4.17444444444445E-01
      0.00000000000000E+00   0.00000000000000E+00   0.00000000000000E+00   0.00000000000000E+00   3.48878079601385E-19
     -1.21590281881216E-15  -1.21555394073256E-15  -5.23579359404215E-15   0.00000000000000E+00   0.00000000000000E+00
      0.00000000000000E+00   0.00000000000000E+00  -1.08693717833223E-15   4.96513039655363E-27  -1.08693717832726E-15
      1.54316243161821E-15   1.25233333333333E+00   1.25233333333333E+00   0.00000000000000E+00   0.00000000000000E+00
      2.30245437449427E-15   3.67445655476504E-20   2.30249111905982E-15   2.85965919087631E-15   1.00000000000000E+00
      1.00000000000000E+00   0.00000000000000E+00   0.00000000000000E+00   0.00000000000000E+00   0.00000000000000E+00
      0.00000000000000E+00   8.32971971547635E-16
      4.42444444444445E-01
      0.00000000000000E+00   0.00000000000000E+00   0.00000000000000E+00   0.00000000000000E+00  -3.10723600587262E-20
     -1.36940378691925E-15  -1.36943485927931E-15  -5.29994441027786E-15   0.00000000000000E+00   0.00000000000000E+00
      0.00000000000000E+00   0.00000000000000E+00  -1.08981942458388E-15   6.05612387221403E-28  -1.08981942458327E-15
      1.54316243160116E-15   1.32733333333333E+00   1.32733333333333E+00   0.00000000000000E+00   0.00000000000000E+00
      2.45921753351989E-15   3.67503426884502E-20   2.45925428386258E-15   2.93052406102363E-15   1.00000000000000E+00
      1.00000000000000E+00   0.00000000000000E+00   0.00000000000000E+00   0.00000000000000E+00   0.00000000000000E+00
      0.00000000000000E+00   8.26257917653059E-16
      4.67444444444445E-01
      0.00000000000000E+00   0.00000000000000E+00   0.00000000000000E+00   0.00000000000000E+00   2.29459693197471E-19
     -1.49103948106952E-15  -1.49081002137632E-15  -5.36287591414112E-15   0.00000000000000E+00   0.00000000000000E+00
      0.00000000000000E+00   0.00000000000000E+00  -1.09332624860744E-15   3.46869030056546E-27  -1.09332624860397E-15
      1.54316243158377E-15   1.40233333333333E+00   1.40233333333333E+00   0.00000000000000E+00   0.00000000000000E+00
      2.58409951241223E-15   3.67575680612596E-20   2.58413626998029E-15   3.00017870715283E-15   1.00000000000000E+00
      1.00000000000000E+00   0.00000000000000E+00   0.00000000000000E+00   0.00000000000000E+00   0.00000000000000E+00
      0.00000000000000E+00   8.19534775404520E-16
      4.92444444444445E-01
      0.00000000000000E+00   0.00000000000000E+00   0.00000000000000E+00   0.00000000000000E+00  -1.44128054484987E-21
     -1.56886013221803E-15  -1.56886157349857E-15  -5.42441479741718E-15   0.00000000000000E+00   0.00000000000000E+00
      0.00000000000000E+00   0.00000000000000E+00  -1.09630176801823E-15   1.86772159440333E-27  -1.09630176801637E-15
      1.54316243156603E-15   1.47733333333333E+00   1.47733333333333E+00   0.00000000000000E+00   0.00000000000000E+00
      2.66512657602051E-15   3.67654944299521E-20   2.66516334151494E-15   3.06845007944915E-15   1.00000000000000E+00
      1.00000000000000E+00   0.00000000000000E+00   0.00000000000000E+00   0.00000000000000E+00   0.00000000000000E+00
      0.00000000000000E+00   8.12802286401999E-16
      5.17444444444445E-01
      0.00000000000000E+00   0.00000000000000E+00   0.00000000000000E+00   0.00000000000000E+00  -1.84306860012053E-19
     -1.61635389365097E-15  -1.61653820051098E-15  -5.48449938682146E-15   0.00000000000000E+00   0.00000000000000E+00
      0.00000000000000E+00   0.00000000000000E+00  -1.09929284842421E-15  -1.24021155405866E-27  -1.09929284842545E-15
      1.54316243154793E-15   1.55233333333333E+00   1.55233333333333E+00   0.00000000000000E+00   0.00000000000000E+00
      2.71579427535310E-15   3.67735833303895E-20   2.71583104893643E-15   3.13527648213086E-15   1.00000000000000E+00
      1.00000000000000E+00   0.00000000000000E+00   0.00000000000000E+00   0.00000000000000E+00   0.00000000000000E+00
      0.00000000000000E+00   8.06060473142668E-16
      5.42444444444445E-01
      0.00000000000000E+00   0.00000000000000E+00   0.00000000000000E+00   0.00000000000000E+00   3.58872459293403E-19
     -1.64885524299659E-15  -1.64849637053730E-15  -5.54324275245754E-15   0.00000000000000E+00   0.00000000000000E+00
      0.00000000000000E+00   0.00000000000000E+00  -1.10297958699656E-15   2.98582977331686E-27  -1.10297958699357E-15
      1.54316243152946E-15   1.62733333333333E+00   1.62733333333333E+00   0.00000000000000E+00   0.00000000000000E+00
      2.75143917600994E-15   3.67815209253555E-20   2.75147595753086E-15   3.20077082733279E-15   1.00000000000000E+00
      1.00000000000000E+00   0.00000000000000E+00   0.00000000000000E+00   0.00000000000000E+00   0.00000000000000E+00
      0.00000000000000E+00   7.99309493595276E-16
      5.67444444444445E-01
      0.00000000000000E+00   0.00000000000000E+00   0.00000000000000E+00   0.00000000000000E+00   3.08743472728086E-19
     -1.67414169122517E-15  -1.67383294775245E-15  -5.60090043514734E-15   0.00000000000000E+00   0.00000000000000E+00
      0.00000000000000E+00   0.00000000000000E+00  -1.10604389518220E-15   3.38403659884276E-27  -1.10604389517882E-15
      1.54316243151062E-15   1.70233333333333E+00   1.70233333333333E+00   0.00000000000000E+00   0.00000000000000E+00
      2.77984005376029E-15   3.67891709660037E-20   2.77987684293126E-15   3.26518841927369E-15   1.00000000000000E+00
      1.00000000000000E+00   0.00000000000000E+00   0.00000000000000E+00   0.00000000000000E+00   0.00000000000000E+00
      0.00000000000000E+00   7.92549584363026E-16
      5.92444444444445E-01
      0.00000000000000E+00   0.00000000000000E+00   0.00000000000000E+00   0.00000000000000E+00  -1.31906580253128E-19
     -1.69427566830170E-15  -1.69440757488196E-15  -5.65776063254886E-15   0.00000000000000E+00   0.00000000000000E+00
      0.00000000000000E+00   0.00000000000000E+00  -1.10868921091944E-15   2.31911995880653E-27  -1.10868921091713E-15
      1.54316243149140E-15   1.77733333333333E+00   1.77733333333333E+00   0.00000000000000E+00   0.00000000000000E+00
      2.80305998930344E-15   3.67964956385332E-20   2.80309678579908E-15   3.32881715937753E-15   1.00000000000000E+00
      1.00000000000000E+00   0.00000000000000E+00   0.00000000000000E+00   0.00000000000000E+00   0.00000000000000E+00
      0.00000000000000E+00   7.85781041679921E-16
      6.17444444444445E-01
      0.00000000000000E+00   0.00000000000000E+00   0.00000000000000E+00   0.00000000000000E+00   9.33428056079745E-20
     -1.71026009351550E-15  -1.71016675070989E-15  -5.71405526300025E-15   0.00000000000000E+00   0.00000000000000E+00
      0.00000000000000E+00   0.00000000000000E+00  -1.11197287892090E-15   1.19092759968196E-27  -1.11197287891971E-15
      1.54316243147181E-15   1.85233333333333E+00   1.85233333333333E+00   0.00000000000000E+00   0.00000000000000E+00
      2.82210282613300E-15   3.68034965969760E-20   2.82213962962960E-15   3.39188861548459E-15   1.00000000000000E+00
      1.00000000000000E+00   0.00000000000000E+00   0.00000000000000E+00   0.00000000000000E+00   0.00000000000000E+00
      0.00000000000000E+00   7.79004216043858E-16
      6.42444444444445E-01
      0.00000000000000E+00   0.00000000000000E+00   0.00000000000000E+00   0.00000000000000E+00  -1.44399820047515E-19
     -1.72372712772852E-15  -1.72387152754856E-15  -5.76993824254003E-15   0.00000000000000E+00   0.00000000000000E+00
      0.00000000000000E+00   0.00000000000000E+00  -1.11476677180610E-15  -2.81832359551749E-27  -1.11476677180892E-15
      1.54316243145182E-15   1.92733333333333E+00   1.92733333333333E+00   0.00000000000000E+00   0.00000000000000E+00
      2.83860148917023E-15   3.68101872570010E-20   2.83863829935748E-15   3.45455630302847E-15   1.00000000000000E+00
      1.00000000000000E+00   0.00000000000000E+00   0.00000000000000E+00   0.00000000000000E+00   0.00000000000000E+00
      0.00000000000000E+00   7.72219508059743E-16
      6.67444444444445E-01
      0.00000000000000E+00   0.00000000000000E+00   0.00000000000000E+00   0.00000000000000E+00   1.33556187920991E-19
     -1.73625743156311E-15  -1.73612387537519E-15  -5.82550329807243E-15   0.00000000000000E+00   0.00000000000000E+00
      0.00000000000000E+00   0.00000000000000E+00  -1.11805025501881E-15  -5.03017427353400E-27  -1.11805025502384E-15
      1.54316243143144E-15   2.00233333333333E+00   2.00233333333333E+00   0.00000000000000E+00   0.00000000000000E+00
      2.85413731381562E-15   3.68165833993081E-20   2.85417413039902E-15   3.51691351123173E-15   1.00000000000000E+00
      1.00000000000000E+00   0.00000000000000E+00   0.00000000000000E+00   0.00000000000000E+00   0.00000000000000E+00
      0.00000000000000E+00   7.65427355409262E-16
      6.92444444444445E-01
      0.00000000000000E+00   0.00000000000000E+00   0.00000000000000E+00   0.00000000000000E+00   1.46649876970816E-19
     -1.74911491014521E-15  -1.74896826026824E-15  -5.88080680843743E-15   0.00000000000000E+00   0.00000000000000E+00
      0.00000000000000E+00   0.00000000000000E+00  -1.12104330150262E-15  -2.55126654507898E-28  -1.12104330150288E-15
      1.54316243141043E-15   2.07733333333333E+00   2.07733333333333E+00   0.00000000000000E+00   0.00000000000000E+00
      2.86997475335434E-15   3.68084167760534E-20   2.87001156177112E-15   3.57901617432074E-15   1.00000000000000E+00
      1.00000000000000E+00   0.00000000000000E+00   0.00000000000000E+00   0.00000000000000E+00   0.00000000000000E+00
      0.00000000000000E+00   7.58628202706256E-16
      7.17444444444445E-01
      0.00000000000000E+00   0.00000000000000E+00   0.00000000000000E+00   0.00000000000000E+00  -5.59362175398264E-19
     -1.76300969900650E-15  -1.76356906118190E-15  -5.93588303390374E-15   0.00000000000000E+00   0.00000000000000E+00
      0.00000000000000E+00   0.00000000000000E+00  -1.12329255712200E-15  -5.78812491758391E-28  -1.12329255712258E-15
      1.54316243138941E-15   2.15233333333333E+00   2.15233333333333E+00   0.00000000000000E+00   0.00000000000000E+00
      2.88682486602744E-15   3.67522770384627E-20   2.88686161830448E-15   3.64089814841405E-15   1.00000000000000E+00
      1.00000000000000E+00   0.00000000000000E+00   0.00000000000000E+00   0.00000000000000E+00   0.00000000000000E+00
      0.00000000000000E+00   7.51822454100283E-16
      7.42444444444445E-01
      0.00000000000000E+00   0.00000000000000E+00   0.00000000000000E+00   0.00000000000000E+00  -1.04997167010245E-19
     -1.77790352970690E-15  -1.77800852687391E-15  -5.99075236371084E-15   0.00000000000000E+00   0.00000000000000E+00
      0.00000000000000E+00   0.00000000000000E+00  -1.12667796170561E-15   9.92304342873075E-27  -1.12667796169569E-15
      1.54316243136791E-15   2.22733333333333E+00   2.22733333333333E+00   0.00000000000000E+00   0.00000000000000E+00
      2.90464970786091E-15   3.67807086923375E-20   2.90468648856960E-15   3.70257951149224E-15   1.00000000000000E+00
      1.00000000000000E+00   0.00000000000000E+00   0.00000000000000E+00   0.00000000000000E+00   0.00000000000000E+00
      0.00000000000000E+00   7.45010420850690E-16
      7.67444444444445E-01
      0.00000000000000E+00   0.00000000000000E+00   0.00000000000000E+00   0.00000000000000E+00  -6.17715178827635E-19
     -1.79316133304073E-15  -1.79377904821956E-15  -6.04542583922156E-15   0.00000000000000E+00   0.00000000000000E+00
      0.00000000000000E+00   0.00000000000000E+00  -1.12907294286428E-15   4.56208990520972E-27  -1.12907294285972E-15
      1.54316243134594E-15   2.30233333333333E+00   2.30233333333333E+00   0.00000000000000E+00   0.00000000000000E+00
      2.92281516267240E-15   3.68284068753700E-20   2.92285199107927E-15   3.76407112361263E-15   1.00000000000000E+00
      1.00000000000000E+00   0.00000000000000E+00   0.00000000000000E+00   0.00000000000000E+00   0.00000000000000E+00
      0.00000000000000E+00   7.38192284262983E-16
      7.92444444444445E-01
      0.00000000000000E+00   0.00000000000000E+00   0.00000000000000E+00   0.00000000000000E+00  -2.62289513823076E-19
     -1.80789368526741E-15  -1.80815597478124E-15  -6.09990817210372E-15   0.00000000000000E+00   0.00000000000000E+00
      0.00000000000000E+00   0.00000000000000E+00  -1.13231368029770E-15   5.57809723580680E-27  -1.13231368029213E-15
      1.54316243132356E-15   2.37733333333333E+00   2.37733333333333E+00   0.00000000000000E+00   0.00000000000000E+00
      2.94043281113633E-15   3.68439370324218E-20   2.94046965507336E-15   3.82537764981271E-15   1.00000000000000E+00
      1.00000000000000E+00   0.00000000000000E+00   0.00000000000000E+00   0.00000000000000E+00   0.00000000000000E+00
      0.00000000000000E+00   7.31368090967473E-16
      8.17444444444445E-01
      0.00000000000000E+00   0.00000000000000E+00   0.00000000000000E+00   0.00000000000000E+00   2.85915232128039E-19
     -1.82151207000830E-15  -1.82122615477618E-15  -6.15420029501188E-15   0.00000000000000E+00   0.00000000000000E+00
      0.00000000000000E+00   0.00000000000000E+00  -1.13572583963347E-15   5.54904698989823E-27  -1.13572583962792E-15
      1.54316243130077E-15   2.45233333333333E+00   2.45233333333333E+00   0.00000000000000E+00   0.00000000000000E+00
      2.95691514476541E-15   3.68496386845516E-20   2.95695199440410E-15   3.88650008020461E-15   1.00000000000000E+00
      1.00000000000000E+00   0.00000000000000E+00   0.00000000000000E+00   0.00000000000000E+00   0.00000000000000E+00
      0.00000000000000E+00   7.24537783506494E-16
      8.42444444444445E-01
      0.00000000000000E+00   0.00000000000000E+00   0.00000000000000E+00   0.00000000000000E+00   2.74670440806223E-19
     -1.83514192707125E-15  -1.83486725663044E-15  -6.20830161569518E-15   0.00000000000000E+00   0.00000000000000E+00
      0.00000000000000E+00   0.00000000000000E+00  -1.13855823809268E-15  -3.68103123079035E-27  -1.13855823809636E-15
      1.54316243127762E-15   2.52733333333333E+00   2.52733333333333E+00   0.00000000000000E+00   0.00000000000000E+00
      2.97338864085326E-15   3.68538735359091E-20   2.97342549472680E-15   3.94743793093015E-15   1.00000000000000E+00
      1.00000000000000E+00   0.00000000000000E+00   0.00000000000000E+00   0.00000000000000E+00   0.00000000000000E+00
      0.00000000000000E+00   7.17701253487405E-16
      8.67444444444445E-01
      0.00000000000000E+00   0.00000000000000E+00   0.00000000000000E+00   0.00000000000000E+00  -4.20566190893280E-19