DF-ISE text

Info {
  version   = 1.0
  type      = xyplot
  datasets  = [
    "time"
    "substrate OuterVoltage" "substrate InnerVoltage" "substrate QuasiFermiPotential" "substrate DisplacementCurrent" "substrate eCurrent"
    "substrate hCurrent" "substrate TotalCurrent" "substrate Charge" "source OuterVoltage" "source InnerVoltage"
    "source QuasiFermiPotential" "source DisplacementCurrent" "source eCurrent" "source hCurrent" "source TotalCurrent"
    "source Charge" "drain OuterVoltage" "drain InnerVoltage" "drain QuasiFermiPotential" "drain DisplacementCurrent"
    "drain eCurrent" "drain hCurrent" "drain TotalCurrent" "drain Charge" "gate OuterVoltage"
    "gate InnerVoltage" "gate QuasiFermiPotential" "gate DisplacementCurrent" "gate eCurrent" "gate hCurrent"
    "gate TotalCurrent" "gate Charge" ]
  functions = [
    Time
    OuterVoltage InnerVoltage QuasiFermiPotential DisplacementCurrent eCurrent
    hCurrent TotalCurrent Charge OuterVoltage InnerVoltage
    QuasiFermiPotential DisplacementCurrent eCurrent hCurrent TotalCurrent
    Charge OuterVoltage InnerVoltage QuasiFermiPotential DisplacementCurrent
    eCurrent hCurrent TotalCurrent Charge OuterVoltage
    InnerVoltage QuasiFermiPotential DisplacementCurrent eCurrent hCurrent
    TotalCurrent Charge ]
}

Data {
      0.00000000000000E+00
      0.00000000000000E+00   0.00000000000000E+00   0.00000000000000E+00   0.00000000000000E+00   2.37784064194134E-22
     -1.22982492688115E-25   2.37661081701446E-22  -3.48450503954868E-15   0.00000000000000E+00   0.00000000000000E+00
      0.00000000000000E+00   0.00000000000000E+00  -1.71534613711043E-22   1.70754907663319E-25  -1.71363858803380E-22
      1.63581791852240E-15   0.00000000000000E+00   0.00000000000000E+00   0.00000000000000E+00   0.00000000000000E+00
     -6.62494505972009E-23  -4.77723008635192E-26  -6.62972228980644E-23   1.63581791852240E-15   0.00000000000000E+00
      0.00000000000000E+00   0.00000000000000E+00   0.00000000000000E+00   0.00000000000000E+00   0.00000000000000E+00
      0.00000000000000E+00   2.12869202503872E-16
      1.00000000000000E-02
      0.00000000000000E+00   0.00000000000000E+00   0.00000000000000E+00   0.00000000000000E+00   4.54090382377391E-19
     -2.52302360974613E-17  -2.47761457150840E-17  -3.51929085896840E-15   0.00000000000000E+00   0.00000000000000E+00
      0.00000000000000E+00   0.00000000000000E+00  -1.38727817199986E-19   3.85468591875956E-25  -1.38727431731395E-19
      1.63581791852239E-15   3.00000000000000E-02   3.00000000000000E-02   0.00000000000000E+00   0.00000000000000E+00
      2.48918754321853E-17   2.29977146300381E-20   2.49148731468153E-17   1.67322368002073E-15   0.00000000000000E+00
      0.00000000000000E+00   0.00000000000000E+00   0.00000000000000E+00   0.00000000000000E+00   0.00000000000000E+00
      0.00000000000000E+00   2.10249260425282E-16
      2.33333333333333E-02
      0.00000000000000E+00   0.00000000000000E+00   0.00000000000000E+00   0.00000000000000E+00   2.14355464848753E-17
     -5.43946364404793E-17  -3.29590899556040E-17  -3.56479076354554E-15   0.00000000000000E+00   0.00000000000000E+00
      0.00000000000000E+00   0.00000000000000E+00  -1.84460406094284E-19  -2.71082231940894E-25  -1.84460677176516E-19
      1.63581791852243E-15   7.00000000000000E-02   7.00000000000000E-02   0.00000000000000E+00   0.00000000000000E+00
      3.31426062745604E-17   9.44358220190204E-22   3.31435506327806E-17   1.72220432351536E-15   0.00000000000000E+00
      0.00000000000000E+00   0.00000000000000E+00   0.00000000000000E+00   0.00000000000000E+00   0.00000000000000E+00
      0.00000000000000E+00   2.06768521507753E-16
      4.28888888888889E-02
      0.00000000000000E+00   0.00000000000000E+00   0.00000000000000E+00   0.00000000000000E+00  -5.84820661581589E-20
     -1.06026336961031E-16  -1.06084819027189E-16  -3.62968488417095E-15   0.00000000000000E+00   0.00000000000000E+00
      0.00000000000000E+00   0.00000000000000E+00  -1.91467402185782E-19  -6.67930253595076E-26  -1.91467468978807E-19
      1.63581791852235E-15   1.28666666666667E-01   1.28666666666667E-01   0.00000000000000E+00   0.00000000000000E+00
      1.06234645175187E-16   4.16413209806957E-20   1.06276286496167E-16   1.79217532428035E-15   0.00000000000000E+00
      0.00000000000000E+00   0.00000000000000E+00   0.00000000000000E+00   0.00000000000000E+00   0.00000000000000E+00
      0.00000000000000E+00   2.01691641368245E-16
      6.78888888888889E-02
      0.00000000000000E+00   0.00000000000000E+00   0.00000000000000E+00   0.00000000000000E+00  -5.88242333951898E-20
     -2.15882477105558E-16  -2.15941301338953E-16  -3.70952595199795E-15   0.00000000000000E+00   0.00000000000000E+00
      0.00000000000000E+00   0.00000000000000E+00  -1.91273988655142E-19  -4.60480265708742E-25  -1.91274449135408E-19
      1.63581791852230E-15   2.03666666666667E-01   2.03666666666667E-01   0.00000000000000E+00   0.00000000000000E+00
      2.16094980743834E-16   3.75950442547138E-20   2.16132575788089E-16   1.87845209757036E-15   0.00000000000000E+00
      0.00000000000000E+00   0.00000000000000E+00   0.00000000000000E+00   0.00000000000000E+00   0.00000000000000E+00
      0.00000000000000E+00   1.95255935905286E-16
      9.28888888888889E-02
      0.00000000000000E+00   0.00000000000000E+00   0.00000000000000E+00   0.00000000000000E+00  -5.76957755914140E-20
     -3.49449767454840E-16  -3.49507463230431E-16  -3.78627266067143E-15   0.00000000000000E+00   0.00000000000000E+00
      0.00000000000000E+00   0.00000000000000E+00  -1.91790361730736E-19   6.08441959004325E-25  -1.91789753288777E-19
      1.63581791852224E-15   2.78666666666667E-01   2.78666666666667E-01   0.00000000000000E+00   0.00000000000000E+00
      3.49678001270405E-16   2.12517133152038E-20   3.49699252983720E-16   1.96156783184720E-15   0.00000000000000E+00
      0.00000000000000E+00   0.00000000000000E+00   0.00000000000000E+00   0.00000000000000E+00   0.00000000000000E+00
      0.00000000000000E+00   1.88886910301980E-16
      1.17888888888889E-01
      0.00000000000000E+00   0.00000000000000E+00   0.00000000000000E+00   0.00000000000000E+00  -5.88848465535913E-20
     -4.37129037760682E-16  -4.37187922607235E-16  -3.86068227703410E-15   0.00000000000000E+00   0.00000000000000E+00
      0.00000000000000E+00   0.00000000000000E+00  -1.92784486718323E-19  -4.05658850958493E-27  -1.92784490774912E-19
      1.63581791852220E-15   3.53666666666667E-01   3.53666666666667E-01   0.00000000000000E+00   0.00000000000000E+00
      4.37343023445597E-16   3.76836524121234E-20   4.37380707098010E-16   2.04228209583683E-15   0.00000000000000E+00
      0.00000000000000E+00   0.00000000000000E+00   0.00000000000000E+00   0.00000000000000E+00   0.00000000000000E+00
      0.00000000000000E+00   1.82582262675076E-16
      1.42888888888889E-01
      0.00000000000000E+00   0.00000000000000E+00   0.00000000000000E+00   0.00000000000000E+00  -5.88236248195095E-20
     -4.86203783799168E-16  -4.86262607423988E-16  -3.93352167250170E-15   0.00000000000000E+00   0.00000000000000E+00
      0.00000000000000E+00   0.00000000000000E+00  -1.92553561169220E-19   4.04623109578407E-25  -1.92553156546111E-19
      1.63581791852217E-15   4.28666666666667E-01   4.28666666666667E-01   0.00000000000000E+00   0.00000000000000E+00
      4.86418701961616E-16   3.64586189187509E-20   4.86455160580535E-16   2.12137585908857E-15   0.00000000000000E+00
      0.00000000000000E+00   0.00000000000000E+00   0.00000000000000E+00   0.00000000000000E+00   0.00000000000000E+00
      0.00000000000000E+00   1.76327894890955E-16
      1.67888888888889E-01
      0.00000000000000E+00   0.00000000000000E+00   0.00000000000000E+00   0.00000000000000E+00  -5.86552965959422E-20
     -5.25995431812006E-16  -5.26054087108602E-16  -4.00533379787470E-15   0.00000000000000E+00   0.00000000000000E+00
      0.00000000000000E+00   0.00000000000000E+00  -1.93364552593986E-19  -1.02439566175381E-25  -1.93364655033552E-19
      1.63581791852215E-15   5.03666666666667E-01   5.03666666666667E-01   0.00000000000000E+00   0.00000000000000E+00
      5.26210603141583E-16   3.68486220517385E-20   5.26247451763635E-16   2.19941342428376E-15   0.00000000000000E+00
      0.00000000000000E+00   0.00000000000000E+00   0.00000000000000E+00   0.00000000000000E+00   0.00000000000000E+00
      0.00000000000000E+00   1.70102455068784E-16
      1.92888888888889E-01
      0.00000000000000E+00   0.00000000000000E+00   0.00000000000000E+00   0.00000000000000E+00  -5.89224804244468E-20
     -5.59868217535117E-16  -5.59927140015542E-16  -4.07642873286712E-15   0.00000000000000E+00   0.00000000000000E+00
      0.00000000000000E+00   0.00000000000000E+00  -1.93621130880653E-19  -1.03937371744125E-25  -1.93621234818025E-19
      1.63581791852213E-15   5.78666666666667E-01   5.78666666666666E-01   0.00000000000000E+00   0.00000000000000E+00
      5.60083925078188E-16   3.68361721712495E-20   5.60120761250359E-16   2.27672461189252E-15   0.00000000000000E+00
      0.00000000000000E+00   0.00000000000000E+00   0.00000000000000E+00   0.00000000000000E+00   0.00000000000000E+00
      0.00000000000000E+00   1.63886202452456E-16
      2.17888888888889E-01
      0.00000000000000E+00   0.00000000000000E+00   0.00000000000000E+00   0.00000000000000E+00  -5.93458787642467E-20
     -5.88482539309343E-16  -5.88541885188107E-16  -4.14695827089485E-15   0.00000000000000E+00   0.00000000000000E+00
      0.00000000000000E+00   0.00000000000000E+00  -1.93876756668266E-19   6.15901992068726E-27  -1.93876750509246E-19
      1.63581791852212E-15   6.53666666666667E-01   6.53666666666667E-01   0.00000000000000E+00   0.00000000000000E+00
      5.88698945122659E-16   3.68168159564092E-20   5.88735761938616E-16   2.35347454869992E-15   0.00000000000000E+00
      0.00000000000000E+00   0.00000000000000E+00   0.00000000000000E+00   0.00000000000000E+00   0.00000000000000E+00
      0.00000000000000E+00   1.57665803672804E-16
      2.42888888888889E-01
      0.00000000000000E+00   0.00000000000000E+00   0.00000000000000E+00   0.00000000000000E+00  -6.42581566420090E-20
     -6.16422259679234E-16  -6.16486517835876E-16  -4.21698192874357E-15   0.00000000000000E+00   0.00000000000000E+00
      0.00000000000000E+00   0.00000000000000E+00  -1.94469237617757E-19  -1.19299169636055E-25  -1.94469356916926E-19
      1.63581791852211E-15   7.28666666666667E-01   7.28666666666667E-01   0.00000000000000E+00   0.00000000000000E+00
      6.16644212314138E-16   3.67748786555451E-20   6.16680987192794E-16   2.42973006636680E-15   0.00000000000000E+00
      0.00000000000000E+00   0.00000000000000E+00   0.00000000000000E+00   0.00000000000000E+00   0.00000000000000E+00
      0.00000000000000E+00   1.51433943854668E-16
      2.67888888888889E-01
      0.00000000000000E+00   0.00000000000000E+00   0.00000000000000E+00   0.00000000000000E+00  -9.32614532444599E-20
     -6.48216739263164E-16  -6.48310000716408E-16  -4.28650919432706E-15   0.00000000000000E+00   0.00000000000000E+00
      0.00000000000000E+00   0.00000000000000E+00  -1.94983004182106E-19   7.60286263312275E-26  -1.94982928153480E-19
      1.63581791852209E-15   8.03666666666667E-01   8.03666666666667E-01   0.00000000000000E+00   0.00000000000000E+00
      6.48468003105622E-16   3.69805389402832E-20   6.48504983644562E-16   2.50550406836150E-15   0.00000000000000E+00
      0.00000000000000E+00   0.00000000000000E+00   0.00000000000000E+00   0.00000000000000E+00   0.00000000000000E+00
      0.00000000000000E+00   1.45187207443475E-16
      2.92888888888889E-01
      0.00000000000000E+00   0.00000000000000E+00   0.00000000000000E+00   0.00000000000000E+00  -5.75817971616437E-20
     -6.91061964991310E-16  -6.91119546788472E-16  -4.35552400732134E-15   0.00000000000000E+00   0.00000000000000E+00
      0.00000000000000E+00   0.00000000000000E+00  -1.95271631822610E-19  -3.79181085094805E-25  -1.95272011003695E-19
      1.63581791852207E-15   8.78666666666667E-01   8.78666666666667E-01   0.00000000000000E+00   0.00000000000000E+00
      6.91278168165750E-16   3.66506337244723E-20   6.91314818799475E-16   2.58078176495939E-15   0.00000000000000E+00
      0.00000000000000E+00   0.00000000000000E+00   0.00000000000000E+00   0.00000000000000E+00   0.00000000000000E+00
      0.00000000000000E+00   1.38924323839879E-16
      3.17888888888889E-01
      0.00000000000000E+00   0.00000000000000E+00   0.00000000000000E+00   0.00000000000000E+00  -5.93360136164574E-20
     -7.51378945385004E-16  -7.51438281398620E-16  -4.42399752624725E-15   0.00000000000000E+00   0.00000000000000E+00
      0.00000000000000E+00   0.00000000000000E+00  -1.95516495301808E-19   2.87157239652760E-25  -1.95516208144568E-19
      1.63581791852204E-15   9.53666666666667E-01   9.53666666666667E-01   0.00000000000000E+00   0.00000000000000E+00
      7.51597446201754E-16   3.63514050099573E-20   7.51633797606764E-16   2.65553448370521E-15   0.00000000000000E+00
      0.00000000000000E+00   0.00000000000000E+00   0.00000000000000E+00   0.00000000000000E+00   0.00000000000000E+00
      0.00000000000000E+00   1.32645124019995E-16
      3.42888888888889E-01
      0.00000000000000E+00   0.00000000000000E+00   0.00000000000000E+00   0.00000000000000E+00  -5.92554980925140E-20
     -8.32787060779315E-16  -8.32846316277408E-16  -4.49189057491239E-15   0.00000000000000E+00   0.00000000000000E+00
      0.00000000000000E+00   0.00000000000000E+00  -1.96069262277404E-19  -3.63965813405623E-26  -1.96069298673985E-19
      1.63581791852200E-15   1.02866666666667E+00   1.02866666666667E+00   0.00000000000000E+00   0.00000000000000E+00
      8.33005641417983E-16   3.67441580987838E-20   8.33042385576082E-16   2.72972266668938E-15   0.00000000000000E+00
      0.00000000000000E+00   0.00000000000000E+00   0.00000000000000E+00   0.00000000000000E+00   0.00000000000000E+00
      0.00000000000000E+00   1.26349989701005E-16
      3.67888888888889E-01
      0.00000000000000E+00   0.00000000000000E+00   0.00000000000000E+00   0.00000000000000E+00  -5.93876723672919E-20
     -9.35820128331644E-16  -9.35879516004011E-16  -4.55914591293410E-15   0.00000000000000E+00   0.00000000000000E+00
      0.00000000000000E+00   0.00000000000000E+00  -1.96397702885945E-19  -4.48582747730645E-26  -1.96397747744219E-19
      1.63581791852195E-15   1.10366666666667E+00   1.10366666666667E+00   0.00000000000000E+00   0.00000000000000E+00
      9.36039172972130E-16   3.67407796241261E-20   9.36075913751755E-16   2.80328843062849E-15   0.00000000000000E+00
      0.00000000000000E+00   0.00000000000000E+00   0.00000000000000E+00   0.00000000000000E+00   0.00000000000000E+00
      0.00000000000000E+00   1.20039563783651E-16
      3.92888888888889E-01
      0.00000000000000E+00   0.00000000000000E+00   0.00000000000000E+00   0.00000000000000E+00  -5.95229188420139E-20
     -1.06197165008483E-15  -1.06203117300367E-15  -4.62567503101804E-15   0.00000000000000E+00   0.00000000000000E+00
      0.00000000000000E+00   0.00000000000000E+00  -1.96591290820760E-19   5.98772337426636E-26  -1.96591230943526E-19
      1.63581791852253E-15   1.17866666666667E+00   1.17866666666667E+00   0.00000000000000E+00   0.00000000000000E+00
      1.06219133618992E-15   3.64280446972427E-20   1.06222776423462E-15   2.87614252273383E-15   0.00000000000000E+00
      0.00000000000000E+00   0.00000000000000E+00   0.00000000000000E+00   0.00000000000000E+00   0.00000000000000E+00
      0.00000000000000E+00   1.13714589761679E-16
      4.17888888888889E-01
      0.00000000000000E+00   0.00000000000000E+00   0.00000000000000E+00   0.00000000000000E+00  -5.96655563606603E-20
     -1.21134626441360E-15  -1.21140592996996E-15  -4.69134717765103E-15   0.00000000000000E+00   0.00000000000000E+00
      0.00000000000000E+00   0.00000000000000E+00  -1.96982299033533E-19   2.33974379033406E-25  -1.96982065059154E-19
      1.63581791852183E-15   1.25366666666667E+00   1.25366666666667E+00   0.00000000000000E+00   0.00000000000000E+00
      1.21156616738587E-15   3.67446491467101E-20   1.21160291203502E-15   2.94815343703849E-15   0.00000000000000E+00
      0.00000000000000E+00   0.00000000000000E+00   0.00000000000000E+00   0.00000000000000E+00   0.00000000000000E+00
      0.00000000000000E+00   1.07375822090704E-16
      4.42888888888889E-01
      0.00000000000000E+00   0.00000000000000E+00   0.00000000000000E+00   0.00000000000000E+00  -5.95409780052899E-20
     -1.36338093721499E-15  -1.36344047819299E-15  -4.75598789984919E-15   0.00000000000000E+00   0.00000000000000E+00
      0.00000000000000E+00   0.00000000000000E+00  -1.97542069932454E-19  -2.11185772333966E-25  -1.97542281118227E-19
      1.63581791852176E-15   1.32866666666667E+00   1.32866666666667E+00   0.00000000000000E+00   0.00000000000000E+00
      1.36360126998253E-15   3.67504915843349E-20   1.36363802047411E-15   3.01914600249842E-15   0.00000000000000E+00
      0.00000000000000E+00   0.00000000000000E+00   0.00000000000000E+00   0.00000000000000E+00   0.00000000000000E+00
      0.00000000000000E+00   1.01023978828999E-16
      4.67888888888889E-01
      0.00000000000000E+00   0.00000000000000E+00   0.00000000000000E+00   0.00000000000000E+00  -5.95003178636474E-20
     -1.48428411850308E-15  -1.48434361882095E-15  -4.81939761469485E-15   0.00000000000000E+00   0.00000000000000E+00
      0.00000000000000E+00   0.00000000000000E+00  -1.98019615469843E-19  -1.03023497481812E-25  -1.98019718493341E-19
      1.63581791852170E-15   1.40366666666667E+00   1.40366666666667E+00   0.00000000000000E+00   0.00000000000000E+00
      1.48450488084300E-15   3.67576964446860E-20   1.48454163853944E-15   3.08891997891375E-15   0.00000000000000E+00
      0.00000000000000E+00   0.00000000000000E+00   0.00000000000000E+00   0.00000000000000E+00   0.00000000000000E+00
      0.00000000000000E+00   9.46597172593972E-17
      4.92888888888889E-01
      0.00000000000000E+00   0.00000000000000E+00   0.00000000000000E+00   0.00000000000000E+00  -5.97642634233996E-20
     -1.56354287427345E-15  -1.56360263853687E-15  -4.88140490407234E-15   0.00000000000000E+00   0.00000000000000E+00
      0.00000000000000E+00   0.00000000000000E+00  -1.98191013637806E-19   3.43562893068217E-25  -1.98190670074913E-19
      1.63581791852167E-15   1.47866666666667E+00   1.47866666666667E+00   0.00000000000000E+00   0.00000000000000E+00
      1.56376406356673E-15   3.67656402104927E-20   1.56380082920694E-15   3.15730336447503E-15   0.00000000000000E+00
      0.00000000000000E+00   0.00000000000000E+00   0.00000000000000E+00   0.00000000000000E+00   0.00000000000000E+00
      0.00000000000000E+00   8.82836210756410E-17
      5.17888888888889E-01
      0.00000000000000E+00   0.00000000000000E+00   0.00000000000000E+00   0.00000000000000E+00  -5.99024910401131E-20
     -1.61464456863568E-15  -1.61470447112672E-15  -4.94195162103937E-15   0.00000000000000E+00   0.00000000000000E+00
      0.00000000000000E+00   0.00000000000000E+00  -1.98483791445811E-19   2.00908272273874E-25  -1.98483590537538E-19
      1.63581791852164E-15   1.55366666666667E+00   1.55366666666667E+00   0.00000000000000E+00   0.00000000000000E+00
      1.61486618098363E-15   3.67737336277254E-20   1.61490295471726E-15   3.22423750833019E-15   0.00000000000000E+00
      0.00000000000000E+00   0.00000000000000E+00   0.00000000000000E+00   0.00000000000000E+00   0.00000000000000E+00
      0.00000000000000E+00   8.18961941875372E-17
      5.42888888888889E-01
      0.00000000000000E+00   0.00000000000000E+00   0.00000000000000E+00   0.00000000000000E+00  -5.98170238734277E-20
     -1.65210274765156E-15  -1.65216256467543E-15  -5.00115459163204E-15   0.00000000000000E+00   0.00000000000000E+00
      0.00000000000000E+00   0.00000000000000E+00  -1.98994008070594E-19   1.77188800727084E-25  -1.98993830881793E-19
      1.63581791852163E-15   1.62866666666667E+00   1.62866666666667E+00   0.00000000000000E+00   0.00000000000000E+00
      1.65232477683367E-15   3.67816726394311E-20   1.65236155850631E-15   3.28983881411098E-15   0.00000000000000E+00
      0.00000000000000E+00   0.00000000000000E+00   0.00000000000000E+00   0.00000000000000E+00   0.00000000000000E+00
      0.00000000000000E+00   7.54978589994291E-17
      5.67888888888889E-01
      0.00000000000000E+00   0.00000000000000E+00   0.00000000000000E+00   0.00000000000000E+00  -6.00294546979401E-20
     -1.68230314487958E-15  -1.68236317433428E-15  -5.05927133166922E-15   0.00000000000000E+00   0.00000000000000E+00
      0.00000000000000E+00   0.00000000000000E+00  -1.99198738470018E-19  -1.89461582861676E-25  -1.99198927931601E-19
      1.63581791852161E-15   1.70366666666667E+00   1.70366666666667E+00   0.00000000000000E+00   0.00000000000000E+00
      1.68252558394449E-15   3.67893177265451E-20   1.68256237326221E-15   3.35436445612688E-15   0.00000000000000E+00
      0.00000000000000E+00   0.00000000000000E+00   0.00000000000000E+00   0.00000000000000E+00   0.00000000000000E+00
      0.00000000000000E+00   6.90889570207288E-17
      5.92888888888889E-01
      0.00000000000000E+00   0.00000000000000E+00   0.00000000000000E+00   0.00000000000000E+00  -6.00180486575708E-20
     -1.70533585039952E-15  -1.70539586844818E-15  -5.11658971519438E-15   0.00000000000000E+00   0.00000000000000E+00
      0.00000000000000E+00   0.00000000000000E+00  -1.99618603531159E-19   5.52763171363428E-25  -1.99618050767988E-19
      1.63581791852160E-15   1.77866666666667E+00   1.77866666666667E+00   0.00000000000000E+00   0.00000000000000E+00
      1.70555868985703E-15   3.67966419159215E-20   1.70559548649895E-15   3.41810204667998E-15   0.00000000000000E+00
      0.00000000000000E+00   0.00000000000000E+00   0.00000000000000E+00   0.00000000000000E+00   0.00000000000000E+00
      0.00000000000000E+00   6.26697499927967E-17
      6.17888888888889E-01
      0.00000000000000E+00   0.00000000000000E+00   0.00000000000000E+00   0.00000000000000E+00  -6.02546001870483E-20
     -1.72099172790124E-15  -1.72105198250143E-15  -5.17334016579846E-15   0.00000000000000E+00   0.00000000000000E+00
      0.00000000000000E+00   0.00000000000000E+00  -1.99780834712288E-19   1.65915150311748E-25  -1.99780668797138E-19
      1.63581791852159E-15   1.85366666666667E+00   1.85366666666667E+00   0.00000000000000E+00   0.00000000000000E+00
      1.72121495952623E-15   3.68036439960809E-20   1.72125176317022E-15   3.48128182518743E-15   0.00000000000000E+00
      0.00000000000000E+00   0.00000000000000E+00   0.00000000000000E+00   0.00000000000000E+00   0.00000000000000E+00
      0.00000000000000E+00   5.62404220894435E-17
      6.42888888888889E-01
      0.00000000000000E+00   0.00000000000000E+00   0.00000000000000E+00   0.00000000000000E+00  -6.02551824750792E-20
     -1.73117982799549E-15  -1.73124008317797E-15  -5.22967507905229E-15   0.00000000000000E+00   0.00000000000000E+00
      0.00000000000000E+00   0.00000000000000E+00  -2.00168696750201E-19   7.29313397900498E-26  -2.00168623818861E-19
      1.63581791852158E-15   1.92866666666667E+00   1.92866666666667E+00   0.00000000000000E+00   0.00000000000000E+00
      1.73140344146917E-15   3.68103326163591E-20   1.73144025180178E-15   3.54405607456515E-15   0.00000000000000E+00
      0.00000000000000E+00   0.00000000000000E+00   0.00000000000000E+00   0.00000000000000E+00   0.00000000000000E+00
      0.00000000000000E+00   4.98010859655546E-17
      6.67888888888889E-01
      0.00000000000000E+00   0.00000000000000E+00   0.00000000000000E+00   0.00000000000000E+00  -6.00832325682176E-20
     -1.73837390920636E-15  -1.73843399243892E-15  -5.28568710627481E-15   0.00000000000000E+00   0.00000000000000E+00
      0.00000000000000E+00   0.00000000000000E+00  -2.00652438959087E-19   4.11577168631574E-26  -2.00652397801370E-19
      1.63581791852112E-15   2.00366666666667E+00   2.00366666666667E+00   0.00000000000000E+00   0.00000000000000E+00
      1.73859783170648E-15   3.68131302479705E-20   1.73863464483673E-15   3.60651739282608E-15   0.00000000000000E+00
      0.00000000000000E+00   0.00000000000000E+00   0.00000000000000E+00   0.00000000000000E+00   0.00000000000000E+00
      0.00000000000000E+00   4.33517949276229E-17
      6.92888888888889E-01
      0.00000000000000E+00   0.00000000000000E+00   0.00000000000000E+00   0.00000000000000E+00  -6.03185799571075E-20
     -1.74471239271187E-15  -1.74477271129183E-15  -5.34143208186317E-15   0.00000000000000E+00   0.00000000000000E+00
      0.00000000000000E+00   0.00000000000000E+00  -2.00843032834813E-19  -4.08677008419753E-25  -2.00843441511821E-19
      1.63581791852133E-15   2.07866666666667E+00   2.07866666666667E+00   0.00000000000000E+00   0.00000000000000E+00
      1.74493674733966E-15   3.68073936785740E-20   1.74497355473334E-15   3.66872160220958E-15   0.00000000000000E+00
      0.00000000000000E+00   0.00000000000000E+00   0.00000000000000E+00   0.00000000000000E+00   0.00000000000000E+00
      0.00000000000000E+00   3.68925611322664E-17
      7.17888888888889E-01
      0.00000000000000E+00   0.00000000000000E+00   0.00000000000000E+00   0.00000000000000E+00  -6.06429761055631E-20
     -1.75204103155827E-15  -1.75210167453438E-15  -5.39694423293651E-15   0.00000000000000E+00   0.00000000000000E+00
      0.00000000000000E+00   0.00000000000000E+00  -2.00881522682072E-19   3.83675436304549E-25  -2.00881139006636E-19
      1.63581791852146E-15   2.15366666666667E+00   2.15366666666667E+00   0.00000000000000E+00   0.00000000000000E+00
      1.75226580425604E-15   3.67514173482875E-20   1.75230255567339E-15   3.73070293730423E-15   0.00000000000000E+00
      0.00000000000000E+00   0.00000000000000E+00   0.00000000000000E+00   0.00000000000000E+00   0.00000000000000E+00
      0.00000000000000E+00   3.04233771108112E-17
      7.42888888888889E-01
      0.00000000000000E+00   0.00000000000000E+00   0.00000000000000E+00   0.00000000000000E+00  -6.06161734101106E-20
     -1.76177821098048E-15  -1.76183882715389E-15  -5.45224433968423E-15   0.00000000000000E+00   0.00000000000000E+00
      0.00000000000000E+00   0.00000000000000E+00  -2.01256394983129E-19   2.47480345842114E-26  -2.01256370235095E-19
      1.63581791852150E-15   2.22866666666667E+00   2.22866666666667E+00   0.00000000000000E+00   0.00000000000000E+00
      1.76200330627489E-15   3.67772492318087E-20   1.76204008352412E-15   3.79248218498282E-15   0.00000000000000E+00
      0.00000000000000E+00   0.00000000000000E+00   0.00000000000000E+00   0.00000000000000E+00   0.00000000000000E+00
      0.00000000000000E+00   2.39442361799086E-17
      7.67888888888889E-01
      0.00000000000000E+00   0.00000000000000E+00   0.00000000000000E+00   0.00000000000000E+00  -6.05735914323010E-20
     -1.77421095926875E-15  -1.77427153286019E-15  -5.50734407595012E-15   0.00000000000000E+00   0.00000000000000E+00
      0.00000000000000E+00   0.00000000000000E+00  -2.01638896414057E-19  -1.84759311731951E-25  -2.01639081173369E-19
      1.63581791852148E-15   2.30366666666667E+00   2.30366666666667E+00   0.00000000000000E+00   0.00000000000000E+00
      1.77443636827067E-15   3.68036706897132E-20   1.77447317194136E-15   3.85407100948518E-15   0.00000000000000E+00
      0.00000000000000E+00   0.00000000000000E+00   0.00000000000000E+00   0.00000000000000E+00   0.00000000000000E+00
      0.00000000000000E+00   1.74551479434537E-17
      7.92888888888889E-01
      0.00000000000000E+00   0.00000000000000E+00   0.00000000000000E+00   0.00000000000000E+00  -6.05563640524732E-20
     -1.78807911360231E-15  -1.78813966996636E-15  -5.56224878465571E-15   0.00000000000000E+00   0.00000000000000E+00
      0.00000000000000E+00   0.00000000000000E+00  -2.01990385034068E-19  -6.11182078389341E-26  -2.01990446152276E-19
      1.63581791852143E-15   2.37866666666667E+00   2.37866666666667E+00   0.00000000000000E+00   0.00000000000000E+00
      1.78830485300482E-15   3.68074076986236E-20   1.78834166041252E-15   3.91547471785807E-15   0.00000000000000E+00
      0.00000000000000E+00   0.00000000000000E+00   0.00000000000000E+00   0.00000000000000E+00   0.00000000000000E+00
      0.00000000000000E+00   1.09561482762155E-17
      8.17888888888889E-01
      0.00000000000000E+00   0.00000000000000E+00   0.00000000000000E+00   0.00000000000000E+00  -6.05960190280670E-20
     -1.80166834159891E-15  -1.80172893761794E-15  -5.61695981571757E-15   0.00000000000000E+00   0.00000000000000E+00
      0.00000000000000E+00   0.00000000000000E+00  -2.02281194457611E-19   1.59691852852325E-25  -2.02281034765758E-19
      1.63581791852139E-15   2.45366666666667E+00   2.45366666666667E+00   0.00000000000000E+00   0.00000000000000E+00
      1.80189437744290E-15   3.68412098117319E-20   1.80193121865271E-15   3.97669459126634E-15   0.00000000000000E+00
      0.00000000000000E+00   0.00000000000000E+00   0.00000000000000E+00   0.00000000000000E+00   0.00000000000000E+00
      0.00000000000000E+00   4.44730592985744E-18
      8.42888888888889E-01
      0.00000000000000E+00   0.00000000000000E+00   0.00000000000000E+00   0.00000000000000E+00  -6.05989167188865E-20
     -1.81523093172041E-15  -1.81529153063713E-15  -5.67147667820205E-15   0.00000000000000E+00   0.00000000000000E+00
      0.00000000000000E+00   0.00000000000000E+00  -2.02606690692336E-19  -2.64676305226508E-25  -2.02606955368642E-19
      1.63581791852139E-15   2.52866666666667E+00   2.52866666666667E+00   0.00000000000000E+00   0.00000000000000E+00
      1.81545728312217E-15   3.68544703306584E-20   1.81549413759250E-15   4.03773003204502E-15   0.00000000000000E+00
      0.00000000000000E+00   0.00000000000000E+00   0.00000000000000E+00   0.00000000000000E+00   0.00000000000000E+00
      0.00000000000000E+00  -2.07127236435480E-18
      8.67888888888889E-01
      0.00000000000000E+00   0.00000000000000E+00   0.00000000000000E+00   0.00000000000000E+00  -6.05531316173384E-20