DF-ISE text

Info {
  version   = 1.0
  type      = xyplot
  datasets  = [
    "time"
    "substrate OuterVoltage" "substrate InnerVoltage" "substrate QuasiFermiPotential" "substrate DisplacementCurrent" "substrate eCurrent"
    "substrate hCurrent" "substrate TotalCurrent" "substrate Charge" "source OuterVoltage" "source InnerVoltage"
    "source QuasiFermiPotential" "source DisplacementCurrent" "source eCurrent" "source hCurrent" "source TotalCurrent"
    "source Charge" "drain OuterVoltage" "drain InnerVoltage" "drain QuasiFermiPotential" "drain DisplacementCurrent"
    "drain eCurrent" "drain hCurrent" "drain TotalCurrent" "drain Charge" "gate OuterVoltage"
    "gate InnerVoltage" "gate QuasiFermiPotential" "gate DisplacementCurrent" "gate eCurrent" "gate hCurrent"
    "gate TotalCurrent" "gate Charge" ]
  functions = [
    Time
    OuterVoltage InnerVoltage QuasiFermiPotential DisplacementCurrent eCurrent
    hCurrent TotalCurrent Charge OuterVoltage InnerVoltage
    QuasiFermiPotential DisplacementCurrent eCurrent hCurrent TotalCurrent
    Charge OuterVoltage InnerVoltage QuasiFermiPotential DisplacementCurrent
    eCurrent hCurrent TotalCurrent Charge OuterVoltage
    InnerVoltage QuasiFermiPotential DisplacementCurrent eCurrent hCurrent
    TotalCurrent Charge ]
}

Data {
      0.00000000000000E+00
      0.00000000000000E+00   0.00000000000000E+00   0.00000000000000E+00   0.00000000000000E+00  -1.12766866474493E-22
     -8.92375571331160E-28  -1.12767758850064E-22  -7.27872795717613E-15   0.00000000000000E+00   0.00000000000000E+00
      0.00000000000000E+00   0.00000000000000E+00   7.78704537620249E-23   6.75828941063568E-28   7.78711295909660E-23
      3.01822716402699E-15   0.00000000000000E+00   0.00000000000000E+00   0.00000000000000E+00   0.00000000000000E+00
      3.48964125654138E-23   2.16693684774776E-28   3.48966292590986E-23   3.01822716402699E-15   1.00000000000000E+00
      1.00000000000000E+00   0.00000000000000E+00   0.00000000000000E+00   0.00000000000000E+00   0.00000000000000E+00
      0.00000000000000E+00   1.24227362912217E-15
      1.00000000000000E-02
      0.00000000000000E+00   0.00000000000000E+00   0.00000000000000E+00   0.00000000000000E+00   4.79858625209653E-19
     -1.91761321256301E-17  -1.86962735004204E-17  -7.34011927890220E-15   0.00000000000000E+00   0.00000000000000E+00
      0.00000000000000E+00   0.00000000000000E+00  -1.11543027222556E-19   2.85437554372555E-28  -1.11543026937118E-19
      3.01822716402697E-15   3.00000000000000E-02   3.00000000000000E-02   0.00000000000000E+00   0.00000000000000E+00
      1.87831210007845E-17   2.46955265730323E-20   1.88078165273575E-17   3.08155232622827E-15   1.00000000000000E+00
      1.00000000000000E+00   0.00000000000000E+00   0.00000000000000E+00   0.00000000000000E+00   0.00000000000000E+00
      0.00000000000000E+00   1.24033978864695E-15
      2.33333333333333E-02
      0.00000000000000E+00   0.00000000000000E+00   0.00000000000000E+00   0.00000000000000E+00   6.50661285824955E-20
     -3.94255743869297E-17  -3.93605082583472E-17  -7.42170771503403E-15   0.00000000000000E+00   0.00000000000000E+00
      0.00000000000000E+00   0.00000000000000E+00  -1.48827789594385E-19   7.18470200859859E-29  -1.48827789522537E-19
      3.01822716402696E-15   7.00000000000000E-02   7.00000000000000E-02   0.00000000000000E+00   0.00000000000000E+00
      3.94878969559072E-17   2.14390919626061E-20   3.95093360478698E-17   3.16572664891679E-15   1.00000000000000E+00
      1.00000000000000E+00   0.00000000000000E+00   0.00000000000000E+00   0.00000000000000E+00   0.00000000000000E+00
      0.00000000000000E+00   1.23775390209028E-15
      4.28888888888889E-02
      0.00000000000000E+00   0.00000000000000E+00   0.00000000000000E+00   0.00000000000000E+00   5.48615838224647E-19
     -7.27518395815887E-17  -7.22032237433640E-17  -7.54094414456331E-15   0.00000000000000E+00   0.00000000000000E+00
      0.00000000000000E+00   0.00000000000000E+00  -1.55252064536093E-19  -4.55200960600708E-29  -1.55252064581613E-19
      3.01822716402700E-15   1.28666666666667E-01   1.28666666666667E-01   0.00000000000000E+00   0.00000000000000E+00
      7.23308561923321E-17   2.76196156137161E-20   7.23584758079458E-17   3.28877005683195E-15   1.00000000000000E+00
      1.00000000000000E+00   0.00000000000000E+00   0.00000000000000E+00   0.00000000000000E+00   0.00000000000000E+00
      0.00000000000000E+00   1.23394692370435E-15
      6.78888888888889E-02
      0.00000000000000E+00   0.00000000000000E+00   0.00000000000000E+00   0.00000000000000E+00  -5.43211756876661E-20
     -1.46434087659678E-16  -1.46488408835366E-16  -7.69278548438390E-15   0.00000000000000E+00   0.00000000000000E+00
      0.00000000000000E+00   0.00000000000000E+00  -1.55239779775534E-19  -4.20414439606077E-28  -1.55239780195949E-19
      3.01822716402686E-15   2.03666666666667E-01   2.03666666666667E-01   0.00000000000000E+00   0.00000000000000E+00
      1.46599167983440E-16   4.44806321219742E-20   1.46643648615562E-16   3.44550074252354E-15   1.00000000000000E+00
      1.00000000000000E+00   0.00000000000000E+00   0.00000000000000E+00   0.00000000000000E+00   0.00000000000000E+00
      0.00000000000000E+00   1.22905757783352E-15
      9.28888888888889E-02
      0.00000000000000E+00   0.00000000000000E+00   0.00000000000000E+00   0.00000000000000E+00  -5.65472054635834E-20
     -3.40846320185268E-16  -3.40902867390731E-16  -7.84403465806575E-15   0.00000000000000E+00   0.00000000000000E+00
      0.00000000000000E+00   0.00000000000000E+00  -1.55350146878480E-19  -2.79809014471907E-28  -1.55350147158289E-19
      3.01822716402669E-15   2.78666666666667E-01   2.78666666666667E-01   0.00000000000000E+00   0.00000000000000E+00
      3.41702271882744E-16  -6.44054344854157E-19   3.41058217537890E-16   3.60166165280263E-15   1.00000000000000E+00
      1.00000000000000E+00   0.00000000000000E+00   0.00000000000000E+00   0.00000000000000E+00   0.00000000000000E+00
      0.00000000000000E+00   1.22414584123644E-15
      1.17888888888889E-01
      0.00000000000000E+00   0.00000000000000E+00   0.00000000000000E+00   0.00000000000000E+00  -5.44172628373574E-20
     -7.81382972298255E-16  -7.81437389561093E-16  -7.99467997772948E-15   0.00000000000000E+00   0.00000000000000E+00
      0.00000000000000E+00   0.00000000000000E+00  -1.55469746667568E-19   1.34055774184212E-28  -1.55469746533512E-19
      3.01822716402632E-15   3.53666666666667E-01   3.53666666666667E-01   0.00000000000000E+00   0.00000000000000E+00
      7.81454135060705E-16   1.38724246921606E-19   7.81592859307626E-16   3.75723881520917E-15   1.00000000000000E+00
      1.00000000000000E+00   0.00000000000000E+00   0.00000000000000E+00   0.00000000000000E+00   0.00000000000000E+00
      0.00000000000000E+00   1.21921399849400E-15
      1.42888888888889E-01
      0.00000000000000E+00   0.00000000000000E+00   0.00000000000000E+00   0.00000000000000E+00  -3.96818868978641E-20
     -1.30892291495758E-15  -1.30896259684448E-15  -8.14465609954218E-15   0.00000000000000E+00   0.00000000000000E+00
      0.00000000000000E+00   0.00000000000000E+00  -1.55721258262507E-19   4.09598750439911E-28  -1.55721257852909E-19
      3.01822716402587E-15   4.28666666666667E-01   4.28666666666667E-01   0.00000000000000E+00   0.00000000000000E+00
      1.30907875841336E-15   3.95596889721711E-20   1.30911831810233E-15   3.91216546013535E-15   1.00000000000000E+00
      1.00000000000000E+00   0.00000000000000E+00   0.00000000000000E+00   0.00000000000000E+00   0.00000000000000E+00
      0.00000000000000E+00   1.21426347538096E-15
      1.67888888888889E-01
      0.00000000000000E+00   0.00000000000000E+00   0.00000000000000E+00   0.00000000000000E+00  -5.47148726317019E-20
     -1.61612821598135E-15  -1.61618293085398E-15  -8.29387975416352E-15   0.00000000000000E+00   0.00000000000000E+00
      0.00000000000000E+00   0.00000000000000E+00  -1.55800857703690E-19  -5.02188984787321E-28  -1.55800858205879E-19
      3.01822716402562E-15   5.03666666666667E-01   5.03666666666667E-01   0.00000000000000E+00   0.00000000000000E+00
      1.61630217242324E-15   3.65592889482810E-20   1.61633873171219E-15   4.06635756764256E-15   1.00000000000000E+00
      1.00000000000000E+00   0.00000000000000E+00   0.00000000000000E+00   0.00000000000000E+00   0.00000000000000E+00
      0.00000000000000E+00   1.20929502249536E-15
      1.92888888888889E-01
      0.00000000000000E+00   0.00000000000000E+00   0.00000000000000E+00   0.00000000000000E+00  -5.46390181060545E-20
     -1.73508338377657E-15  -1.73513802279467E-15  -8.44228509608040E-15   0.00000000000000E+00   0.00000000000000E+00
      0.00000000000000E+00   0.00000000000000E+00  -1.56138861252734E-19   2.06457193284490E-28  -1.56138861046276E-19
      3.01822716402552E-15   5.78666666666667E-01   5.78666666666667E-01   0.00000000000000E+00   0.00000000000000E+00
      1.73527140097619E-15   2.27606795266380E-20   1.73529416165572E-15   4.21974891855775E-15   1.00000000000000E+00
      1.00000000000000E+00   0.00000000000000E+00   0.00000000000000E+00   0.00000000000000E+00   0.00000000000000E+00
      0.00000000000000E+00   1.20430901349713E-15
      2.17888888888889E-01
      0.00000000000000E+00   0.00000000000000E+00   0.00000000000000E+00   0.00000000000000E+00  -5.48131979589869E-20
     -1.79554188094619E-15  -1.79559669414415E-15  -8.58983704248160E-15   0.00000000000000E+00   0.00000000000000E+00
      0.00000000000000E+00   0.00000000000000E+00  -1.56223428963728E-19  -2.18158992770982E-28  -1.56223429181887E-19
      3.01822716402547E-15   6.53666666666667E-01   6.53666666666667E-01   0.00000000000000E+00   0.00000000000000E+00
      1.79571331237711E-15   3.96051962128620E-20   1.79575291757333E-15   4.37230411088989E-15   1.00000000000000E+00
      1.00000000000000E+00   0.00000000000000E+00   0.00000000000000E+00   0.00000000000000E+00   0.00000000000000E+00
      0.00000000000000E+00   1.19930576756624E-15
      2.42888888888889E-01
      0.00000000000000E+00   0.00000000000000E+00   0.00000000000000E+00   0.00000000000000E+00  -5.48014985317230E-20
     -1.83057430021377E-15  -1.83062910171230E-15  -8.73651481905642E-15   0.00000000000000E+00   0.00000000000000E+00
      0.00000000000000E+00   0.00000000000000E+00  -1.56487036546282E-19  -2.37625537131736E-29  -1.56487036570045E-19
      3.01822716402544E-15   7.28666666666667E-01   7.28666666666667E-01   0.00000000000000E+00   0.00000000000000E+00
      1.83074950243650E-15   3.60863123714840E-20   1.83078558874887E-15   4.52400182365378E-15   1.00000000000000E+00
      1.00000000000000E+00   0.00000000000000E+00   0.00000000000000E+00   0.00000000000000E+00   0.00000000000000E+00
      0.00000000000000E+00   1.19428583137720E-15
      2.67888888888889E-01
      0.00000000000000E+00   0.00000000000000E+00   0.00000000000000E+00   0.00000000000000E+00  -5.49196888035332E-20
     -1.85398494514790E-15  -1.85403986483670E-15  -8.88229407841056E-15   0.00000000000000E+00   0.00000000000000E+00
      0.00000000000000E+00   0.00000000000000E+00  -1.56627727642482E-19   5.49894111639581E-29  -1.56627727587493E-19
      3.01822716402542E-15   8.03666666666667E-01   8.03666666666667E-01   0.00000000000000E+00   0.00000000000000E+00
      1.85415975231575E-15   3.67402485409735E-20   1.85419649256429E-15   4.67481679024308E-15   1.00000000000000E+00
      1.00000000000000E+00   0.00000000000000E+00   0.00000000000000E+00   0.00000000000000E+00   0.00000000000000E+00
      0.00000000000000E+00   1.18925012414209E-15
      2.92888888888889E-01
      0.00000000000000E+00   0.00000000000000E+00   0.00000000000000E+00   0.00000000000000E+00  -5.50943371408320E-20
     -1.87607590443178E-15  -1.87613099876892E-15  -9.02714052801358E-15   0.00000000000000E+00   0.00000000000000E+00
      0.00000000000000E+00   0.00000000000000E+00  -1.56701670152174E-19   3.40629418044867E-28  -1.56701669811545E-19
      3.01822716402540E-15   8.78666666666667E-01   8.78666666666667E-01   0.00000000000000E+00   0.00000000000000E+00
      1.87625093330492E-15   3.67671338088847E-20   1.87628770043873E-15   4.82471353004348E-15   1.00000000000000E+00
      1.00000000000000E+00   0.00000000000000E+00   0.00000000000000E+00   0.00000000000000E+00   0.00000000000000E+00
      0.00000000000000E+00   1.18419983394471E-15
      3.17888888888889E-01
      0.00000000000000E+00   0.00000000000000E+00   0.00000000000000E+00   0.00000000000000E+00  -5.50181651700275E-20
     -1.89521636586874E-15  -1.89527138403391E-15  -9.17102076307969E-15   0.00000000000000E+00   0.00000000000000E+00
      0.00000000000000E+00   0.00000000000000E+00  -1.57022908403968E-19   3.31301179697597E-29  -1.57022908370838E-19
      3.01822716402538E-15   9.53666666666667E-01   9.53666666666667E-01   0.00000000000000E+00   0.00000000000000E+00
      1.89539161743571E-15   3.67895065729632E-20   1.89542840694229E-15   4.97365746831745E-15   1.00000000000000E+00
      1.00000000000000E+00   0.00000000000000E+00   0.00000000000000E+00   0.00000000000000E+00   0.00000000000000E+00
      0.00000000000000E+00   1.17913613073688E-15
      3.42888888888889E-01
      0.00000000000000E+00   0.00000000000000E+00   0.00000000000000E+00   0.00000000000000E+00  -5.51408572348844E-20
     -1.91182494442519E-15  -1.91188008528242E-15  -9.31393181857445E-15   0.00000000000000E+00   0.00000000000000E+00
      0.00000000000000E+00   0.00000000000000E+00  -1.57143262972822E-19   5.70110681664052E-29  -1.57143262915810E-19
      3.01822716402536E-15   1.02866666666667E+00   1.02866666666667E+00   0.00000000000000E+00   0.00000000000000E+00
      1.91200042133774E-15   3.68072075978271E-20   1.91203722854534E-15   5.12164472221273E-15   1.00000000000000E+00
      1.00000000000000E+00   0.00000000000000E+00   0.00000000000000E+00   0.00000000000000E+00   0.00000000000000E+00
      0.00000000000000E+00   1.17405993233637E-15
      3.67888888888889E-01
      0.00000000000000E+00   0.00000000000000E+00   0.00000000000000E+00   0.00000000000000E+00  -5.51616927345571E-20
     -1.92871526051295E-15  -1.92877042220568E-15  -9.45589440819512E-15   0.00000000000000E+00   0.00000000000000E+00
      0.00000000000000E+00   0.00000000000000E+00  -1.57364040861860E-19  -1.62680414486825E-28  -1.57364041024540E-19
      3.01822716402535E-15   1.10366666666667E+00   1.10366666666667E+00   0.00000000000000E+00   0.00000000000000E+00
      1.92889096669890E-15   3.68195478081768E-20   1.92892778624671E-15   5.26869541050895E-15   1.00000000000000E+00
      1.00000000000000E+00   0.00000000000000E+00   0.00000000000000E+00   0.00000000000000E+00   0.00000000000000E+00
      0.00000000000000E+00   1.16897183366083E-15
      3.92888888888889E-01
      0.00000000000000E+00   0.00000000000000E+00   0.00000000000000E+00   0.00000000000000E+00  -5.52482272822057E-20
     -1.94850450648187E-15  -1.94855975470916E-15  -9.59688675576684E-15   0.00000000000000E+00   0.00000000000000E+00
      0.00000000000000E+00   0.00000000000000E+00  -1.57518366460900E-19  -6.68413854298460E-29  -1.57518366527741E-19
      3.01822716402533E-15   1.17866666666667E+00   1.17866666666667E+00   0.00000000000000E+00   0.00000000000000E+00
      1.94868044545073E-15   3.68276249488703E-20   1.94871727307568E-15   5.41478745160382E-15   1.00000000000000E+00
      1.00000000000000E+00   0.00000000000000E+00   0.00000000000000E+00   0.00000000000000E+00   0.00000000000000E+00
      0.00000000000000E+00   1.16387214013769E-15
      4.17888888888889E-01
      0.00000000000000E+00   0.00000000000000E+00   0.00000000000000E+00   0.00000000000000E+00  -5.53108831447863E-20
     -1.97275426482370E-15  -1.97280957570685E-15  -9.73678756937989E-15   0.00000000000000E+00   0.00000000000000E+00
      0.00000000000000E+00   0.00000000000000E+00  -1.57695013558832E-19  -1.88042802864517E-28  -1.57695013746875E-19
      3.01822716402574E-15   1.25366666666667E+00   1.25366666666667E+00   0.00000000000000E+00   0.00000000000000E+00
      1.97293043761554E-15   3.68331050554693E-20   1.97296727072060E-15   5.55979947391955E-15   1.00000000000000E+00
      1.00000000000000E+00   0.00000000000000E+00   0.00000000000000E+00   0.00000000000000E+00   0.00000000000000E+00
      0.00000000000000E+00   1.15876093143461E-15
      4.42888888888889E-01
      0.00000000000000E+00   0.00000000000000E+00   0.00000000000000E+00   0.00000000000000E+00  -5.53978473422118E-20
     -2.00130569767972E-15  -2.00136109552706E-15  -9.87535137759325E-15   0.00000000000000E+00   0.00000000000000E+00
      0.00000000000000E+00   0.00000000000000E+00  -1.57817196965080E-19   3.36083799031428E-28  -1.57817196628996E-19
      3.01822716402314E-15   1.32866666666667E+00   1.32866666666667E+00   0.00000000000000E+00   0.00000000000000E+00
      2.00148208826721E-15   3.68244564731241E-20   2.00151891272369E-15   5.70348609336303E-15   1.00000000000000E+00
      1.00000000000000E+00   0.00000000000000E+00   0.00000000000000E+00   0.00000000000000E+00   0.00000000000000E+00
      0.00000000000000E+00   1.15363812020709E-15
      4.67888888888889E-01
      0.00000000000000E+00   0.00000000000000E+00   0.00000000000000E+00   0.00000000000000E+00  -5.53198303513627E-20
     -2.03261018692598E-15  -2.03266550675633E-15  -1.00121801659778E-14   0.00000000000000E+00   0.00000000000000E+00
      0.00000000000000E+00   0.00000000000000E+00  -1.57953400909139E-19  -1.49413076053469E-28  -1.57953401058552E-19
      3.01822716401526E-15   1.40366666666667E+00   1.40366666666667E+00   0.00000000000000E+00   0.00000000000000E+00
      2.03278663891506E-15   3.68212423334641E-20   2.03282346015739E-15   5.84544950644311E-15   1.00000000000000E+00
      1.00000000000000E+00   0.00000000000000E+00   0.00000000000000E+00   0.00000000000000E+00   0.00000000000000E+00
      0.00000000000000E+00   1.14850349551948E-15
      4.92888888888889E-01
      0.00000000000000E+00   0.00000000000000E+00   0.00000000000000E+00   0.00000000000000E+00  -5.55789819303745E-20
     -2.06442430974523E-15  -2.06447988872716E-15  -1.01466657315938E-14   0.00000000000000E+00   0.00000000000000E+00
      0.00000000000000E+00   0.00000000000000E+00  -1.58164469261396E-19  -2.95143916402194E-28  -1.58164469556540E-19
      3.01822716402522E-15   1.47866666666667E+00   1.47866666666667E+00   0.00000000000000E+00   0.00000000000000E+00
      2.06460120164044E-15   3.68515562726537E-20   2.06463805319672E-15   5.98508181402892E-15   1.00000000000000E+00
      1.00000000000000E+00   0.00000000000000E+00   0.00000000000000E+00   0.00000000000000E+00   0.00000000000000E+00
      0.00000000000000E+00   1.14335675353965E-15
      5.17888888888889E-01
      0.00000000000000E+00   0.00000000000000E+00   0.00000000000000E+00   0.00000000000000E+00  -5.56589404009704E-20
     -2.09466453618395E-15  -2.09472019512435E-15  -1.02779042421187E-14   0.00000000000000E+00   0.00000000000000E+00
      0.00000000000000E+00   0.00000000000000E+00  -1.58332634066691E-19   3.76709001778124E-28  -1.58332633689982E-19
      3.01822716402519E-15   1.55366666666667E+00   1.55366666666667E+00   0.00000000000000E+00   0.00000000000000E+00
      2.09484167058793E-15   3.68571701058679E-20   2.09487852775804E-15   6.12147955409371E-15   1.00000000000000E+00
      1.00000000000000E+00   0.00000000000000E+00   0.00000000000000E+00   0.00000000000000E+00   0.00000000000000E+00
      0.00000000000000E+00   1.13819752399979E-15
      5.42888888888889E-01
      0.00000000000000E+00   0.00000000000000E+00   0.00000000000000E+00   0.00000000000000E+00  -5.57621978659358E-20
     -2.12244336056663E-15  -2.12249912276449E-15  -1.04046463035669E-14   0.00000000000000E+00   0.00000000000000E+00
      0.00000000000000E+00   0.00000000000000E+00  -1.58477254392134E-19  -3.52639906228067E-28  -1.58477254744774E-19
      3.01822716402517E-15   1.62866666666667E+00   1.62866666666667E+00   0.00000000000000E+00   0.00000000000000E+00
      2.12262073745467E-15   3.68625645644886E-20   2.12265760001924E-15   6.25339373728205E-15   1.00000000000000E+00
      1.00000000000000E+00   0.00000000000000E+00   0.00000000000000E+00   0.00000000000000E+00   0.00000000000000E+00
      0.00000000000000E+00   1.13302540225972E-15
      5.67888888888889E-01
      0.00000000000000E+00   0.00000000000000E+00   0.00000000000000E+00   0.00000000000000E+00  -5.57393170462752E-20
     -2.14723498322968E-15  -2.14729072254672E-15  -1.05255062791431E-14   0.00000000000000E+00   0.00000000000000E+00
      0.00000000000000E+00   0.00000000000000E+00  -1.58745557192692E-19  -3.44437933129406E-29  -1.58745557227136E-19
      3.01822716402515E-15   1.70366666666667E+00   1.70366666666667E+00   0.00000000000000E+00   0.00000000000000E+00
      2.14741260045731E-15   3.68676466404038E-20   2.14744946810395E-15   6.37943912282893E-15   1.00000000000000E+00
      1.00000000000000E+00   0.00000000000000E+00   0.00000000000000E+00   0.00000000000000E+00   0.00000000000000E+00
      0.00000000000000E+00   1.12783999228908E-15
      5.92888888888889E-01
      0.00000000000000E+00   0.00000000000000E+00   0.00000000000000E+00   0.00000000000000E+00  -5.59409328873721E-20
     -2.16727638288519E-15  -2.16733232381808E-15  -1.06397357409694E-14   0.00000000000000E+00   0.00000000000000E+00
      0.00000000000000E+00   0.00000000000000E+00  -1.58783867943354E-19   6.21666152013876E-29  -1.58783867881188E-19
      3.01822716402513E-15   1.77866666666667E+00   1.77866666666667E+00   0.00000000000000E+00   0.00000000000000E+00
      2.16745423533562E-15   3.68723503386707E-20   2.16749110768596E-15   6.49886761965185E-15   1.00000000000000E+00
      1.00000000000000E+00   0.00000000000000E+00   0.00000000000000E+00   0.00000000000000E+00   0.00000000000000E+00
      0.00000000000000E+00   1.12264095729246E-15
      6.17888888888889E-01
      0.00000000000000E+00   0.00000000000000E+00   0.00000000000000E+00   0.00000000000000E+00  -5.58918412260299E-20
     -2.18291762658502E-15  -2.18297351842625E-15  -1.07481233672554E-14   0.00000000000000E+00   0.00000000000000E+00
      0.00000000000000E+00   0.00000000000000E+00  -1.59065117342649E-19  -2.67402575364233E-28  -1.59065117610052E-19
      3.01822716402511E-15   1.85366666666667E+00   1.85366666666667E+00   0.00000000000000E+00   0.00000000000000E+00
      2.18309570683547E-15   3.68767083952582E-20   2.18313258354386E-15   6.61246813781667E-15   1.00000000000000E+00
      1.00000000000000E+00   0.00000000000000E+00   0.00000000000000E+00   0.00000000000000E+00   0.00000000000000E+00
      0.00000000000000E+00   1.11742806541368E-15
      6.42888888888889E-01
      0.00000000000000E+00   0.00000000000000E+00   0.00000000000000E+00   0.00000000000000E+00  -5.59650056422097E-20
     -2.19876210220759E-15  -2.19881806721323E-15  -1.08526247692721E-14   0.00000000000000E+00   0.00000000000000E+00
      0.00000000000000E+00   0.00000000000000E+00  -1.59215985130981E-19   7.75497754131207E-29  -1.59215985053431E-19
      3.01822716402510E-15   1.92866666666667E+00   1.92866666666667E+00   0.00000000000000E+00   0.00000000000000E+00
      2.19894040234963E-15   3.68808486576514E-20   2.19897728319829E-15   6.72219638684335E-15   1.00000000000000E+00
      1.00000000000000E+00   0.00000000000000E+00   0.00000000000000E+00   0.00000000000000E+00   0.00000000000000E+00
      0.00000000000000E+00   1.11220121840361E-15
      6.67888888888889E-01
      0.00000000000000E+00   0.00000000000000E+00   0.00000000000000E+00   0.00000000000000E+00  -5.60413321336835E-20
     -2.22033956125569E-15  -2.22039560258783E-15  -1.09550067729518E-14   0.00000000000000E+00   0.00000000000000E+00
      0.00000000000000E+00   0.00000000000000E+00  -1.59354916612422E-19  -2.51448436372598E-28  -1.59354916863870E-19
      3.01822716402508E-15   2.00366666666667E+00   2.00366666666667E+00   0.00000000000000E+00   0.00000000000000E+00
      2.22051807260925E-15   3.68848954379883E-20   2.22055495750469E-15   6.82981914441678E-15   1.00000000000000E+00
      1.00000000000000E+00   0.00000000000000E+00   0.00000000000000E+00   0.00000000000000E+00   0.00000000000000E+00
      0.00000000000000E+00   1.10696046450998E-15
      6.92888888888889E-01
      0.00000000000000E+00   0.00000000000000E+00   0.00000000000000E+00   0.00000000000000E+00  -5.61636147514714E-20
     -2.24862345255531E-15  -2.24867961617006E-15  -1.10562885162851E-14   0.00000000000000E+00   0.00000000000000E+00
      0.00000000000000E+00   0.00000000000000E+00  -1.59436209742265E-19   5.22266942655653E-29  -1.59436209690039E-19
      3.01822716402505E-15   2.07866666666667E+00   2.07866666666667E+00   0.00000000000000E+00   0.00000000000000E+00
      2.24880216346313E-15   3.68889166201416E-20   2.24883905237975E-15   6.93635534071766E-15   1.00000000000000E+00
      1.00000000000000E+00   0.00000000000000E+00   0.00000000000000E+00   0.00000000000000E+00   0.00000000000000E+00
      0.00000000000000E+00   1.10170601154241E-15
      7.17888888888889E-01
      0.00000000000000E+00   0.00000000000000E+00   0.00000000000000E+00   0.00000000000000E+00  -5.60718857222209E-20
     -2.27697058776750E-15  -2.27702665965322E-15  -1.11569614092012E-14   0.00000000000000E+00   0.00000000000000E+00
      0.00000000000000E+00   0.00000000000000E+00  -1.59718080803433E-19   1.19227964897235E-28  -1.59718080684205E-19
      3.01822716402503E-15   2.15366666666667E+00   2.15366666666667E+00   0.00000000000000E+00   0.00000000000000E+00
      2.27714948479525E-15   3.68929386513194E-20   2.27718637773390E-15   7.04229598853825E-15   1.00000000000000E+00
      1.00000000000000E+00   0.00000000000000E+00   0.00000000000000E+00   0.00000000000000E+00   0.00000000000000E+00
      0.00000000000000E+00   1.09643825663794E-15
      7.42888888888889E-01
      0.00000000000000E+00   0.00000000000000E+00   0.00000000000000E+00   0.00000000000000E+00  -5.62031738083996E-20
     -2.29873678767941E-15  -2.29879299085322E-15  -1.12572475134548E-14   0.00000000000000E+00   0.00000000000000E+00
      0.00000000000000E+00   0.00000000000000E+00  -1.59765763457175E-19  -8.36621761893831E-29  -1.59765763540837E-19
      3.01822716402501E-15   2.22866666666667E+00   2.22866666666667E+00   0.00000000000000E+00   0.00000000000000E+00
      2.29891585964725E-15   3.68969695145738E-20   2.29895275661676E-15   7.14786251553873E-15   1.00000000000000E+00
      1.00000000000000E+00   0.00000000000000E+00   0.00000000000000E+00   0.00000000000000E+00   0.00000000000000E+00
      0.00000000000000E+00   1.09115783389106E-15
      7.67888888888889E-01
      0.00000000000000E+00   0.00000000000000E+00   0.00000000000000E+00   0.00000000000000E+00  -5.62959265329475E-20
     -2.31581684843368E-15  -2.31587314436021E-15  -1.13572433740607E-14   0.00000000000000E+00   0.00000000000000E+00
      0.00000000000000E+00   0.00000000000000E+00  -1.59844772550180E-19  -4.96465735468576E-29  -1.59844772599826E-19
      3.01822716402499E-15   2.30366666666667E+00   2.30366666666667E+00   0.00000000000000E+00   0.00000000000000E+00
      2.31599608812231E-15   3.69010105025782E-20   2.31603298913282E-15   7.25315055191294E-15   1.00000000000000E+00
      1.00000000000000E+00   0.00000000000000E+00   0.00000000000000E+00   0.00000000000000E+00   0.00000000000000E+00
      0.00000000000000E+00   1.08586565812279E-15
      7.92888888888889E-01
      0.00000000000000E+00   0.00000000000000E+00   0.00000000000000E+00   0.00000000000000E+00  -5.62218440015201E-20
     -2.33694630917365E-15  -2.33700253101765E-15  -1.14569938886459E-14   0.00000000000000E+00   0.00000000000000E+00
      0.00000000000000E+00   0.00000000000000E+00  -1.60086463037115E-19   1.48986053242997E-28  -1.60086462888129E-19
      3.01822716402498E-15   2.37866666666667E+00   2.37866666666667E+00   0.00000000000000E+00   0.00000000000000E+00
      2.33712571241972E-15   3.69050608163626E-20   2.33716261748054E-15   7.35820380032956E-15   1.00000000000000E+00
      1.00000000000000E+00   0.00000000000000E+00   0.00000000000000E+00   0.00000000000000E+00   0.00000000000000E+00
      0.00000000000000E+00   1.08056292429140E-15
      8.17888888888889E-01
      0.00000000000000E+00   0.00000000000000E+00   0.00000000000000E+00   0.00000000000000E+00  -5.63334947745665E-20
     -2.37792675724520E-15  -2.37798309073997E-15  -1.15565249120290E-14   0.00000000000000E+00   0.00000000000000E+00
      0.00000000000000E+00   0.00000000000000E+00  -1.60139859767353E-19   1.14617966542371E-28  -1.60139859652735E-19
      3.01822716402474E-15   2.45366666666667E+00   2.45366666666667E+00   0.00000000000000E+00   0.00000000000000E+00
      2.37810632149004E-15   3.69091095847414E-20   2.37814323059962E-15   7.46304672019690E-15   1.00000000000000E+00
      1.00000000000000E+00   0.00000000000000E+00   0.00000000000000E+00   0.00000000000000E+00   0.00000000000000E+00
      0.00000000000000E+00   1.07525102780736E-15
      8.42888888888889E-01
      0.00000000000000E+00   0.00000000000000E+00   0.00000000000000E+00   0.00000000000000E+00  -5.63573298641142E-20
     -2.47166591508629E-15  -2.47172227241616E-15  -1.16558532155002E-14   0.00000000000000E+00   0.00000000000000E+00
      0.00000000000000E+00   0.00000000000000E+00  -1.60279992495076E-19  -1.80065182095969E-28  -1.60279992675141E-19
      3.01822716402462E-15   2.52866666666667E+00   2.52866666666667E+00   0.00000000000000E+00   0.00000000000000E+00
      2.47184563927804E-15   3.69131307894720E-20   2.47188255240883E-15   7.56769463865883E-15   1.00000000000000E+00
      1.00000000000000E+00   0.00000000000000E+00   0.00000000000000E+00   0.00000000000000E+00   0.00000000000000E+00
      0.00000000000000E+00   1.06993141281672E-15
      8.67888888888889E-01
      0.00000000000000E+00   0.00000000000000E+00   0.00000000000000E+00   0.00000000000000E+00  -5.64554013867155E-20