DF-ISE text

Info {
  version   = 1.0
  type      = xyplot
  datasets  = [
    "time"
    "substrate OuterVoltage" "substrate InnerVoltage" "substrate QuasiFermiPotential" "substrate DisplacementCurrent" "substrate eCurrent"
    "substrate hCurrent" "substrate TotalCurrent" "substrate Charge" "source OuterVoltage" "source InnerVoltage"
    "source QuasiFermiPotential" "source DisplacementCurrent" "source eCurrent" "source hCurrent" "source TotalCurrent"
    "source Charge" "drain OuterVoltage" "drain InnerVoltage" "drain QuasiFermiPotential" "drain DisplacementCurrent"
    "drain eCurrent" "drain hCurrent" "drain TotalCurrent" "drain Charge" "gate OuterVoltage"
    "gate InnerVoltage" "gate QuasiFermiPotential" "gate DisplacementCurrent" "gate eCurrent" "gate hCurrent"
    "gate TotalCurrent" "gate Charge" ]
  functions = [
    Time
    OuterVoltage InnerVoltage QuasiFermiPotential DisplacementCurrent eCurrent
    hCurrent TotalCurrent Charge OuterVoltage InnerVoltage
    QuasiFermiPotential DisplacementCurrent eCurrent hCurrent TotalCurrent
    Charge OuterVoltage InnerVoltage QuasiFermiPotential DisplacementCurrent
    eCurrent hCurrent TotalCurrent Charge OuterVoltage
    InnerVoltage QuasiFermiPotential DisplacementCurrent eCurrent hCurrent
    TotalCurrent Charge ]
}

Data {
      0.00000000000000E+00
      0.00000000000000E+00   0.00000000000000E+00   0.00000000000000E+00   0.00000000000000E+00   7.92725388593820E-23
      1.55641607412983E-25   7.94281804667950E-23  -3.48663587371043E-15   0.00000000000000E+00   0.00000000000000E+00
      0.00000000000000E+00   0.00000000000000E+00  -1.47369886669348E-22   1.90777469203002E-25  -1.47179109200145E-22
      1.63687190787630E-15   0.00000000000000E+00   0.00000000000000E+00   0.00000000000000E+00   0.00000000000000E+00
      6.80973478224635E-23  -3.46419089114035E-25   6.77509287333494E-23   1.63687190787630E-15   0.00000000000000E+00
      0.00000000000000E+00   0.00000000000000E+00   0.00000000000000E+00   0.00000000000000E+00   0.00000000000000E+00
      0.00000000000000E+00   2.12892057957818E-16
      1.00000000000000E-02
      0.00000000000000E+00   0.00000000000000E+00   0.00000000000000E+00   0.00000000000000E+00   4.55078830733907E-19
     -2.53409939090349E-17  -2.48859150783010E-17  -3.52142156660812E-15   0.00000000000000E+00   0.00000000000000E+00
      0.00000000000000E+00   0.00000000000000E+00  -1.38511414250198E-19  -9.05268912501444E-26  -1.38511504777089E-19
      1.63687190787629E-15   3.00000000000000E-02   3.00000000000000E-02   0.00000000000000E+00   0.00000000000000E+00
      2.50014342113662E-17   2.29923717119398E-20   2.50244265830781E-17   1.67427751982335E-15   0.00000000000000E+00
      0.00000000000000E+00   0.00000000000000E+00   0.00000000000000E+00   0.00000000000000E+00   0.00000000000000E+00
      0.00000000000000E+00   2.10272138908480E-16
      2.33333333333333E-02
      0.00000000000000E+00   0.00000000000000E+00   0.00000000000000E+00   0.00000000000000E+00   2.14097907759301E-17
     -5.46886601318133E-17  -3.32788693558832E-17  -3.56691725207825E-15   0.00000000000000E+00   0.00000000000000E+00
      0.00000000000000E+00   0.00000000000000E+00  -1.84197797538188E-19  -2.41111041367646E-25  -1.84198038649230E-19
      1.63687190787633E-15   7.00000000000000E-02   7.00000000000000E-02   0.00000000000000E+00   0.00000000000000E+00
      3.34621331317747E-17   9.34262757717923E-22   3.34630673945325E-17   1.72325392313432E-15   0.00000000000000E+00
      0.00000000000000E+00   0.00000000000000E+00   0.00000000000000E+00   0.00000000000000E+00   0.00000000000000E+00
      0.00000000000000E+00   2.06791421067604E-16
      4.28888888888889E-02
      0.00000000000000E+00   0.00000000000000E+00   0.00000000000000E+00   0.00000000000000E+00  -5.84509200189224E-20
     -1.06766416160345E-16  -1.06824867080364E-16  -3.63179948150919E-15   0.00000000000000E+00   0.00000000000000E+00
      0.00000000000000E+00   0.00000000000000E+00  -1.91452441230938E-19  -1.35853658633513E-25  -1.91452577084596E-19
      1.63687190787625E-15   1.28666666666667E-01   1.28666666666667E-01   0.00000000000000E+00   0.00000000000000E+00
      1.06974651146042E-16   4.16685114065493E-20   1.07016319657449E-16   1.79321302232947E-15   0.00000000000000E+00
      0.00000000000000E+00   0.00000000000000E+00   0.00000000000000E+00   0.00000000000000E+00   0.00000000000000E+00
      0.00000000000000E+00   2.01714551303465E-16
      6.78888888888889E-02
      0.00000000000000E+00   0.00000000000000E+00   0.00000000000000E+00   0.00000000000000E+00  -5.86539722803118E-20
     -2.17257571793184E-16  -2.17316225765464E-16  -3.71162172362562E-15   0.00000000000000E+00   0.00000000000000E+00
      0.00000000000000E+00   0.00000000000000E+00  -1.91411583364997E-19  -3.28371152073602E-25  -1.91411911736149E-19
      1.63687190787620E-15   2.03666666666667E-01   2.03666666666667E-01   0.00000000000000E+00   0.00000000000000E+00
      2.17470343490260E-16   3.72941869394869E-20   2.17507637677200E-16   1.87947099013536E-15   0.00000000000000E+00
      0.00000000000000E+00   0.00000000000000E+00   0.00000000000000E+00   0.00000000000000E+00   0.00000000000000E+00
      0.00000000000000E+00   1.95278825614059E-16
      9.28888888888889E-02
      0.00000000000000E+00   0.00000000000000E+00   0.00000000000000E+00   0.00000000000000E+00  -5.87687972416467E-20
     -3.50580133909557E-16  -3.50638902706799E-16  -3.78835248034615E-15   0.00000000000000E+00   0.00000000000000E+00
      0.00000000000000E+00   0.00000000000000E+00  -1.91645993086579E-19   3.40012263219105E-25  -1.91645653074316E-19
      1.63687190787614E-15   2.78666666666667E-01   2.78666666666667E-01   0.00000000000000E+00   0.00000000000000E+00
      3.50793544060693E-16   3.70042991805763E-20   3.50830548359873E-16   1.96257081469741E-15   0.00000000000000E+00
      0.00000000000000E+00   0.00000000000000E+00   0.00000000000000E+00   0.00000000000000E+00   0.00000000000000E+00
      0.00000000000000E+00   1.88909757772607E-16
      1.17888888888889E-01
      0.00000000000000E+00   0.00000000000000E+00   0.00000000000000E+00   0.00000000000000E+00  -5.88107035005151E-20
     -4.37546879084965E-16  -4.37605689788466E-16  -3.86275218576676E-15   0.00000000000000E+00   0.00000000000000E+00
      0.00000000000000E+00   0.00000000000000E+00  -1.92805110336460E-19   3.65161020396611E-26  -1.92805073820358E-19
      1.63687190787610E-15   3.53666666666667E-01   3.53666666666667E-01   0.00000000000000E+00   0.00000000000000E+00
      4.37761627767214E-16   3.68670950717362E-20   4.37798494862286E-16   2.04327519701871E-15   0.00000000000000E+00
      0.00000000000000E+00   0.00000000000000E+00   0.00000000000000E+00   0.00000000000000E+00   0.00000000000000E+00
      0.00000000000000E+00   1.82605080871958E-16
      1.42888888888889E-01
      0.00000000000000E+00   0.00000000000000E+00   0.00000000000000E+00   0.00000000000000E+00  -5.85834908634603E-20
     -4.86333808944042E-16  -4.86392392434905E-16  -3.93558675960091E-15   0.00000000000000E+00   0.00000000000000E+00
      0.00000000000000E+00   0.00000000000000E+00  -1.92741638697130E-19   6.06853379699121E-26  -1.92741578011792E-19
      1.63687190787607E-15   4.28666666666667E-01   4.28666666666667E-01   0.00000000000000E+00   0.00000000000000E+00
      4.86549002072338E-16   3.61319405771597E-20   4.86585134012915E-16   2.12236411862201E-15   0.00000000000000E+00
      0.00000000000000E+00   0.00000000000000E+00   0.00000000000000E+00   0.00000000000000E+00   0.00000000000000E+00
      0.00000000000000E+00   1.76350733102822E-16
      1.67888888888889E-01
      0.00000000000000E+00   0.00000000000000E+00   0.00000000000000E+00   0.00000000000000E+00  -5.88652441931066E-20
     -5.26040190842410E-16  -5.26099056086603E-16  -4.00739707224107E-15   0.00000000000000E+00   0.00000000000000E+00
      0.00000000000000E+00   0.00000000000000E+00  -1.93112139397621E-19  -1.15207219142320E-25  -1.93112254604840E-19
      1.63687190787605E-15   5.03666666666667E-01   5.03666666666667E-01   0.00000000000000E+00   0.00000000000000E+00
      5.26255318950998E-16   3.68493902094553E-20   5.26292168341208E-16   2.20039979037197E-15   0.00000000000000E+00
      0.00000000000000E+00   0.00000000000000E+00   0.00000000000000E+00   0.00000000000000E+00   0.00000000000000E+00
      0.00000000000000E+00   1.70125373993049E-16
      1.92888888888889E-01
      0.00000000000000E+00   0.00000000000000E+00   0.00000000000000E+00   0.00000000000000E+00  -5.88193670349949E-20
     -5.59808768195445E-16  -5.59867587562480E-16  -4.07849169208204E-15   0.00000000000000E+00   0.00000000000000E+00
      0.00000000000000E+00   0.00000000000000E+00  -1.93682702872531E-19  -1.86890292218603E-25  -1.93682889762824E-19
      1.63687190787603E-15   5.78666666666667E-01   5.78666666666666E-01   0.00000000000000E+00   0.00000000000000E+00
      5.60024433402205E-16   3.68370500381313E-20   5.60061270452243E-16   2.27771053500741E-15   0.00000000000000E+00
      0.00000000000000E+00   0.00000000000000E+00   0.00000000000000E+00   0.00000000000000E+00   0.00000000000000E+00
      0.00000000000000E+00   1.63909249198588E-16
      2.17888888888889E-01
      0.00000000000000E+00   0.00000000000000E+00   0.00000000000000E+00   0.00000000000000E+00  -5.92022893372341E-20
     -5.88259654250468E-16  -5.88318856539805E-16  -4.14902158393307E-15   0.00000000000000E+00   0.00000000000000E+00
      0.00000000000000E+00   0.00000000000000E+00  -1.93979185780530E-19  -4.07792420504158E-25  -1.93979593572951E-19
      1.63687190787602E-15   6.53666666666667E-01   6.53666666666667E-01   0.00000000000000E+00   0.00000000000000E+00
      5.88476018365503E-16   3.68177678738927E-20   5.88512836133377E-16   2.35446067083061E-15   0.00000000000000E+00
      0.00000000000000E+00   0.00000000000000E+00   0.00000000000000E+00   0.00000000000000E+00   0.00000000000000E+00
      0.00000000000000E+00   1.57689005226439E-16
      2.42888888888889E-01
      0.00000000000000E+00   0.00000000000000E+00   0.00000000000000E+00   0.00000000000000E+00  -6.42885287712257E-20
     -6.15942917049284E-16  -6.16007205578056E-16  -4.21904584264173E-15   0.00000000000000E+00   0.00000000000000E+00
      0.00000000000000E+00   0.00000000000000E+00  -1.94384416437786E-19  -2.06259464757661E-25  -1.94384622697251E-19
      1.63687190787601E-15   7.28666666666667E-01   7.28666666666667E-01   0.00000000000000E+00   0.00000000000000E+00
      6.16164814460195E-16   3.67757405568553E-20   6.16201590200752E-16   2.43071662293428E-15   0.00000000000000E+00
      0.00000000000000E+00   0.00000000000000E+00   0.00000000000000E+00   0.00000000000000E+00   0.00000000000000E+00
      0.00000000000000E+00   1.51457311831447E-16
      2.67888888888889E-01
      0.00000000000000E+00   0.00000000000000E+00   0.00000000000000E+00   0.00000000000000E+00  -6.91484280113033E-20
     -6.47351600284308E-16  -6.47420748712320E-16  -4.28857373534019E-15   0.00000000000000E+00   0.00000000000000E+00
      0.00000000000000E+00   0.00000000000000E+00  -1.94540021512957E-19   1.21735266849394E-25  -1.94539899777690E-19
      1.63687190787599E-15   8.03666666666667E-01   8.03666666666667E-01   0.00000000000000E+00   0.00000000000000E+00
      6.47578307719903E-16   3.69808921954408E-20   6.47615288612099E-16   2.50649108333279E-15   0.00000000000000E+00
      0.00000000000000E+00   0.00000000000000E+00   0.00000000000000E+00   0.00000000000000E+00   0.00000000000000E+00
      0.00000000000000E+00   1.45210744131401E-16
      2.92888888888889E-01
      0.00000000000000E+00   0.00000000000000E+00   0.00000000000000E+00   0.00000000000000E+00  -5.79009549985743E-20
     -6.89679704270336E-16  -6.89737605225335E-16  -4.35758906962041E-15   0.00000000000000E+00   0.00000000000000E+00
      0.00000000000000E+00   0.00000000000000E+00  -1.95003104878108E-19   2.88925869860092E-25  -1.95002815952238E-19
      1.63687190787597E-15   8.78666666666667E-01   8.78666666666667E-01   0.00000000000000E+00   0.00000000000000E+00
      6.89895956265794E-16   3.66517754933234E-20   6.89932608041287E-16   2.58176913550774E-15   0.00000000000000E+00
      0.00000000000000E+00   0.00000000000000E+00   0.00000000000000E+00   0.00000000000000E+00   0.00000000000000E+00
      0.00000000000000E+00   1.38948026236701E-16
      3.17888888888889E-01
      0.00000000000000E+00   0.00000000000000E+00   0.00000000000000E+00   0.00000000000000E+00  -5.88880473290921E-20
     -7.49423407520490E-16  -7.49482295567819E-16  -4.42606290441404E-15   0.00000000000000E+00   0.00000000000000E+00
      0.00000000000000E+00   0.00000000000000E+00  -1.95623136216039E-19  -5.35689451399771E-25  -1.95623671905490E-19
      1.63687190787594E-15   9.53666666666667E-01   9.53666666666667E-01   0.00000000000000E+00   0.00000000000000E+00
      7.49641566914713E-16   3.63523250119812E-20   7.49677919239725E-16   2.65652201053378E-15   0.00000000000000E+00
      0.00000000000000E+00   0.00000000000000E+00   0.00000000000000E+00   0.00000000000000E+00   0.00000000000000E+00
      0.00000000000000E+00   1.32668986004316E-16
      3.42888888888889E-01
      0.00000000000000E+00   0.00000000000000E+00   0.00000000000000E+00   0.00000000000000E+00  -5.94010779497191E-20
     -8.30368950485791E-16  -8.30428351563741E-16  -4.49395597318042E-15   0.00000000000000E+00   0.00000000000000E+00
      0.00000000000000E+00   0.00000000000000E+00  -1.95879559771580E-19   2.07514281479105E-25  -1.95879352257298E-19
      1.63687190787590E-15   1.02866666666667E+00   1.02866666666667E+00   0.00000000000000E+00   0.00000000000000E+00
      8.30587486163464E-16   3.67447525347624E-20   8.30624230915999E-16   2.73071006222489E-15   0.00000000000000E+00
      0.00000000000000E+00   0.00000000000000E+00   0.00000000000000E+00   0.00000000000000E+00   0.00000000000000E+00
      0.00000000000000E+00   1.26374003079631E-16
      3.67888888888889E-01
      0.00000000000000E+00   0.00000000000000E+00   0.00000000000000E+00   0.00000000000000E+00  -5.93026196333337E-20
     -9.33258754185137E-16  -9.33318056804770E-16  -4.56121094530462E-15   0.00000000000000E+00   0.00000000000000E+00
      0.00000000000000E+00   0.00000000000000E+00  -1.96439596904685E-19   1.30112999379595E-25  -1.96439466791686E-19
      1.63687190787586E-15   1.10366666666667E+00   1.10366666666667E+00   0.00000000000000E+00   0.00000000000000E+00
      9.33477755100953E-16   3.67411706110070E-20   9.33514496271564E-16   2.80427531866933E-15   0.00000000000000E+00
      0.00000000000000E+00   0.00000000000000E+00   0.00000000000000E+00   0.00000000000000E+00   0.00000000000000E+00
      0.00000000000000E+00   1.20063718759432E-16
      3.92888888888889E-01
      0.00000000000000E+00   0.00000000000000E+00   0.00000000000000E+00   0.00000000000000E+00  -5.94894228082904E-20
     -1.05971789102795E-15  -1.05977738045076E-15  -4.62773921417480E-15   0.00000000000000E+00   0.00000000000000E+00
      0.00000000000000E+00   0.00000000000000E+00  -1.96581119275514E-19   1.24361532267698E-25  -1.96580994913982E-19
      1.63687190787643E-15   1.17866666666667E+00   1.17866666666667E+00   0.00000000000000E+00   0.00000000000000E+00
      1.05993753391283E-15   3.64275328420363E-20   1.05997396144567E-15   2.87712843118350E-15   0.00000000000000E+00
      0.00000000000000E+00   0.00000000000000E+00   0.00000000000000E+00   0.00000000000000E+00   0.00000000000000E+00
      0.00000000000000E+00   1.13738875114860E-16
      4.17888888888889E-01
      0.00000000000000E+00   0.00000000000000E+00   0.00000000000000E+00   0.00000000000000E+00  -5.98192823736472E-20
     -1.20971652244271E-15  -1.20977634172509E-15  -4.69340992668210E-15   0.00000000000000E+00   0.00000000000000E+00
      0.00000000000000E+00   0.00000000000000E+00  -1.96785299839404E-19   1.25888630506529E-25  -1.96785173950773E-19
      1.63687190787573E-15   1.25366666666667E+00   1.25366666666667E+00   0.00000000000000E+00   0.00000000000000E+00
      1.20993638221395E-15   3.67446850926826E-20   1.20997312689904E-15   2.94913779358407E-15   0.00000000000000E+00
      0.00000000000000E+00   0.00000000000000E+00   0.00000000000000E+00   0.00000000000000E+00   0.00000000000000E+00
      0.00000000000000E+00   1.07400225222304E-16
      4.42888888888889E-01
      0.00000000000000E+00   0.00000000000000E+00   0.00000000000000E+00   0.00000000000000E+00  -5.97573066181285E-20
     -1.36236424833406E-15  -1.36242400564067E-15  -4.75804856321921E-15   0.00000000000000E+00   0.00000000000000E+00
      0.00000000000000E+00   0.00000000000000E+00  -1.97282421220482E-19   2.33863375798592E-25  -1.97282187357106E-19
      1.63687190787566E-15   1.32866666666667E+00   1.32866666666667E+00   0.00000000000000E+00   0.00000000000000E+00
      1.36258453742115E-15   3.67504068728942E-20   1.36262128782803E-15   3.02012816958532E-15   0.00000000000000E+00
      0.00000000000000E+00   0.00000000000000E+00   0.00000000000000E+00   0.00000000000000E+00   0.00000000000000E+00
      0.00000000000000E+00   1.01048485758234E-16
      4.67888888888889E-01
      0.00000000000000E+00   0.00000000000000E+00   0.00000000000000E+00   0.00000000000000E+00  -5.98228740289301E-20
     -1.48379463839457E-15  -1.48385446126860E-15  -4.82145561228461E-15   0.00000000000000E+00   0.00000000000000E+00
      0.00000000000000E+00   0.00000000000000E+00  -1.97653673244568E-19   3.89947109403849E-25  -1.97653283297459E-19
      1.63687190787561E-15   1.40366666666667E+00   1.40366666666667E+00   0.00000000000000E+00   0.00000000000000E+00
      1.48401535702167E-15   3.67575302331661E-20   1.48405211455190E-15   3.08989939176166E-15   0.00000000000000E+00
      0.00000000000000E+00   0.00000000000000E+00   0.00000000000000E+00   0.00000000000000E+00   0.00000000000000E+00
      0.00000000000000E+00   9.46843126473410E-17
      4.92888888888889E-01
      0.00000000000000E+00   0.00000000000000E+00   0.00000000000000E+00   0.00000000000000E+00  -5.97055321669468E-20
     -1.56360578640555E-15  -1.56366549193772E-15  -4.88346000546929E-15   0.00000000000000E+00   0.00000000000000E+00
      0.00000000000000E+00   0.00000000000000E+00  -1.98206276445420E-19  -1.94588205728276E-25  -1.98206471033626E-19
      1.63687190787557E-15   1.47866666666667E+00   1.47866666666667E+00   0.00000000000000E+00   0.00000000000000E+00
      1.56382693298054E-15   3.67654282068292E-20   1.56386369840875E-15   3.15827980924728E-15   0.00000000000000E+00
      0.00000000000000E+00   0.00000000000000E+00   0.00000000000000E+00   0.00000000000000E+00   0.00000000000000E+00
      0.00000000000000E+00   8.83082883464428E-17
      5.17888888888889E-01
      0.00000000000000E+00   0.00000000000000E+00   0.00000000000000E+00   0.00000000000000E+00  -5.98575145812979E-20
     -1.61525934410584E-15  -1.61531920162042E-15  -4.94400423530252E-15   0.00000000000000E+00   0.00000000000000E+00
      0.00000000000000E+00   0.00000000000000E+00  -1.98485212053757E-19   6.73667681697771E-26  -1.98485144686989E-19
      1.63687190787554E-15   1.55366666666667E+00   1.55366666666667E+00   0.00000000000000E+00   0.00000000000000E+00
      1.61548091326309E-15   3.67735020238402E-20   1.61551768676511E-15   3.22521141159477E-15   0.00000000000000E+00
      0.00000000000000E+00   0.00000000000000E+00   0.00000000000000E+00   0.00000000000000E+00   0.00000000000000E+00
      0.00000000000000E+00   8.19209158321999E-17
      5.42888888888889E-01
      0.00000000000000E+00   0.00000000000000E+00   0.00000000000000E+00   0.00000000000000E+00  -6.02458746109503E-20
     -1.65318598478289E-15  -1.65324623065750E-15  -5.00320576686472E-15   0.00000000000000E+00   0.00000000000000E+00
      0.00000000000000E+00   0.00000000000000E+00  -1.98521518595634E-19   2.03006835170495E-25  -1.98521315588799E-19
      1.63687190787552E-15   1.62866666666667E+00   1.62866666666667E+00   0.00000000000000E+00   0.00000000000000E+00
      1.65340797053399E-15   3.67814391039625E-20   1.65344475197309E-15   3.29081124182662E-15   0.00000000000000E+00
      0.00000000000000E+00   0.00000000000000E+00   0.00000000000000E+00   0.00000000000000E+00   0.00000000000000E+00
      0.00000000000000E+00   7.55226171625677E-17
      5.67888888888889E-01
      0.00000000000000E+00   0.00000000000000E+00   0.00000000000000E+00   0.00000000000000E+00  -6.01780220113794E-20
     -1.68373935737832E-15  -1.68379953540033E-15  -5.06132238056970E-15   0.00000000000000E+00   0.00000000000000E+00
      0.00000000000000E+00   0.00000000000000E+00  -1.99006458788746E-19  -2.58841692616232E-25  -1.99006717630438E-19
      1.63687190787551E-15   1.70366666666667E+00   1.70366666666667E+00   0.00000000000000E+00   0.00000000000000E+00
      1.68396175302499E-15   3.67890929681932E-20   1.68399854211796E-15   3.35533673822866E-15   0.00000000000000E+00
      0.00000000000000E+00   0.00000000000000E+00   0.00000000000000E+00   0.00000000000000E+00   0.00000000000000E+00
      0.00000000000000E+00   6.91137344655314E-17
      5.92888888888889E-01
      0.00000000000000E+00   0.00000000000000E+00   0.00000000000000E+00   0.00000000000000E+00  -6.01774125627923E-20
     -1.70702188941234E-15  -1.70708206682491E-15  -5.11864179674960E-15   0.00000000000000E+00   0.00000000000000E+00
      0.00000000000000E+00   0.00000000000000E+00  -1.99415463507075E-19  -5.81439496178941E-25  -1.99416044946571E-19
      1.63687190787550E-15   1.77866666666667E+00   1.77866666666667E+00   0.00000000000000E+00   0.00000000000000E+00
      1.70724468643822E-15   3.67964316337906E-20   1.70728148286985E-15   3.41907535739268E-15   0.00000000000000E+00
      0.00000000000000E+00   0.00000000000000E+00   0.00000000000000E+00   0.00000000000000E+00   0.00000000000000E+00
      0.00000000000000E+00   6.26945314814266E-17
      6.17888888888889E-01
      0.00000000000000E+00   0.00000000000000E+00   0.00000000000000E+00   0.00000000000000E+00  -6.01920517052147E-20
     -1.72285199571189E-15  -1.72291218776360E-15  -5.17539410321282E-15   0.00000000000000E+00   0.00000000000000E+00
      0.00000000000000E+00   0.00000000000000E+00  -1.99799551071667E-19   2.57090234497176E-25  -1.99799293981433E-19
      1.63687190787549E-15   1.85366666666667E+00   1.85366666666667E+00   0.00000000000000E+00   0.00000000000000E+00
      1.72307518360653E-15   3.68034510510815E-20   1.72311198705758E-15   3.48225699926899E-15   0.00000000000000E+00
      0.00000000000000E+00   0.00000000000000E+00   0.00000000000000E+00   0.00000000000000E+00   0.00000000000000E+00
      0.00000000000000E+00   5.62651960683511E-17
      6.42888888888889E-01
      0.00000000000000E+00   0.00000000000000E+00   0.00000000000000E+00   0.00000000000000E+00  -6.02329896756999E-20
     -1.73316019585211E-15  -1.73322042884179E-15  -5.23173137817071E-15   0.00000000000000E+00   0.00000000000000E+00
      0.00000000000000E+00   0.00000000000000E+00  -2.00147004975656E-19   8.48037127047549E-25  -2.00146156938529E-19
      1.63687190787548E-15   1.92866666666667E+00   1.92866666666667E+00   0.00000000000000E+00   0.00000000000000E+00
      1.73338376484091E-15   3.68101578218045E-20   1.73342057499873E-15   3.54503362407963E-15   0.00000000000000E+00
      0.00000000000000E+00   0.00000000000000E+00   0.00000000000000E+00   0.00000000000000E+00   0.00000000000000E+00
      0.00000000000000E+00   4.98258462156043E-17
      6.67888888888889E-01
      0.00000000000000E+00   0.00000000000000E+00   0.00000000000000E+00   0.00000000000000E+00  -6.02565513006425E-20
     -1.74043419463865E-15  -1.74049445118995E-15  -5.28774604019992E-15   0.00000000000000E+00   0.00000000000000E+00
      0.00000000000000E+00   0.00000000000000E+00  -2.00434050984646E-19  -2.43770682764767E-25  -2.00434294755328E-19
      1.63687190787502E-15   2.00366666666667E+00   2.00366666666667E+00   0.00000000000000E+00   0.00000000000000E+00
      1.74065807252434E-15   3.68129603723169E-20   1.74069488548471E-15   3.60749759068232E-15   0.00000000000000E+00
      0.00000000000000E+00   0.00000000000000E+00   0.00000000000000E+00   0.00000000000000E+00   0.00000000000000E+00
      0.00000000000000E+00   4.33765416425875E-17
      6.92888888888889E-01
      0.00000000000000E+00   0.00000000000000E+00   0.00000000000000E+00   0.00000000000000E+00  -6.03946852463378E-20
     -1.74682279364199E-15  -1.74688318832723E-15  -5.34349377204468E-15   0.00000000000000E+00   0.00000000000000E+00
      0.00000000000000E+00   0.00000000000000E+00  -2.00722703453576E-19   3.47748525526568E-25  -2.00722355705050E-19
      1.63687190787523E-15   2.07866666666667E+00   2.07866666666667E+00   0.00000000000000E+00   0.00000000000000E+00
      1.74704710388809E-15   3.68067948439210E-20   1.74708391068294E-15   3.66970456325842E-15   0.00000000000000E+00
      0.00000000000000E+00   0.00000000000000E+00   0.00000000000000E+00   0.00000000000000E+00   0.00000000000000E+00
      0.00000000000000E+00   3.69173009110412E-17
      7.17888888888889E-01
      0.00000000000000E+00   0.00000000000000E+00   0.00000000000000E+00   0.00000000000000E+00  -6.04244050531498E-20
     -1.75418049451083E-15  -1.75424091891588E-15  -5.39900871285141E-15   0.00000000000000E+00   0.00000000000000E+00
      0.00000000000000E+00   0.00000000000000E+00  -2.01055991538454E-19  -2.07192646109595E-25  -2.01056198731100E-19
      1.63687190787535E-15   2.15366666666667E+00   2.15366666666667E+00   0.00000000000000E+00   0.00000000000000E+00
      1.75440522425141E-15   3.67508632023333E-20   1.75444197511461E-15   3.73168868329705E-15   0.00000000000000E+00
      0.00000000000000E+00   0.00000000000000E+00   0.00000000000000E+00   0.00000000000000E+00   0.00000000000000E+00
      0.00000000000000E+00   3.04481216790109E-17
      7.42888888888889E-01
      0.00000000000000E+00   0.00000000000000E+00   0.00000000000000E+00   0.00000000000000E+00  -6.05513989218564E-20
     -1.76393456918853E-15  -1.76399512058745E-15  -5.45431160327592E-15   0.00000000000000E+00   0.00000000000000E+00
      0.00000000000000E+00   0.00000000000000E+00  -2.01277024073535E-19  -3.58648772773917E-26  -2.01277059938412E-19
      1.63687190787540E-15   2.22866666666667E+00   2.22866666666667E+00   0.00000000000000E+00   0.00000000000000E+00
      1.76415962002137E-15   3.67776260223219E-20   1.76419639764739E-15   3.79347069525103E-15   0.00000000000000E+00
      0.00000000000000E+00   0.00000000000000E+00   0.00000000000000E+00   0.00000000000000E+00   0.00000000000000E+00
      0.00000000000000E+00   2.39690001494925E-17
      7.67888888888889E-01
      0.00000000000000E+00   0.00000000000000E+00   0.00000000000000E+00   0.00000000000000E+00  -6.03699271952450E-20
     -1.77638120331075E-15  -1.77644157323794E-15  -5.50941411207787E-15   0.00000000000000E+00   0.00000000000000E+00
      0.00000000000000E+00   0.00000000000000E+00  -2.01798337118529E-19  -1.65711923067587E-25  -2.01798502830452E-19
      1.63687190787538E-15   2.30366666666667E+00   2.30366666666667E+00   0.00000000000000E+00   0.00000000000000E+00
      1.77660656796418E-15   3.68037765963297E-20   1.77664337174077E-15   3.85506225793624E-15   0.00000000000000E+00
      0.00000000000000E+00   0.00000000000000E+00   0.00000000000000E+00   0.00000000000000E+00   0.00000000000000E+00
      0.00000000000000E+00   1.74799462662665E-17
      7.92888888888889E-01
      0.00000000000000E+00   0.00000000000000E+00   0.00000000000000E+00   0.00000000000000E+00  -6.07853175803132E-20
     -1.79026644356585E-15  -1.79032722888343E-15  -5.56432159693579E-15   0.00000000000000E+00   0.00000000000000E+00
      0.00000000000000E+00   0.00000000000000E+00  -2.01717120465264E-19  -2.10889999955262E-25  -2.01717331355264E-19
      1.63687190787533E-15   2.37866666666667E+00   2.37866666666667E+00   0.00000000000000E+00   0.00000000000000E+00
      1.79049213892301E-15   3.68072917720543E-20   1.79052894621478E-15   3.91646869501065E-15   0.00000000000000E+00
      0.00000000000000E+00   0.00000000000000E+00   0.00000000000000E+00   0.00000000000000E+00   0.00000000000000E+00
      0.00000000000000E+00   1.09809940498060E-17
      8.17888888888889E-01
      0.00000000000000E+00   0.00000000000000E+00   0.00000000000000E+00   0.00000000000000E+00  -6.04046936770970E-20
     -1.80387761516244E-15  -1.80393801985612E-15  -5.61903542866086E-15   0.00000000000000E+00   0.00000000000000E+00
      0.00000000000000E+00   0.00000000000000E+00  -2.02428115770417E-19   5.08074782994585E-25  -2.02427607695634E-19
      1.63687190787529E-15   2.45366666666667E+00   2.45366666666667E+00   0.00000000000000E+00   0.00000000000000E+00
      1.80410360641188E-15   3.68410519354093E-20   1.80414044746382E-15   3.97769131183936E-15   0.00000000000000E+00
      0.00000000000000E+00   0.00000000000000E+00   0.00000000000000E+00   0.00000000000000E+00   0.00000000000000E+00
      0.00000000000000E+00   4.47220894621175E-18
      8.42888888888889E-01
      0.00000000000000E+00   0.00000000000000E+00   0.00000000000000E+00   0.00000000000000E+00  -6.07817049152409E-20
     -1.81746736693984E-15  -1.81752814864476E-15  -5.67355513415864E-15   0.00000000000000E+00   0.00000000000000E+00
      0.00000000000000E+00   0.00000000000000E+00  -2.02379401884141E-19  -2.22332986160046E-25  -2.02379624217127E-19
      1.63687190787529E-15   2.52866666666667E+00   2.52866666666667E+00   0.00000000000000E+00   0.00000000000000E+00
      1.81769367386289E-15   3.68544060785728E-20   1.81773052826897E-15   4.03872953252925E-15   0.00000000000000E+00
      0.00000000000000E+00   0.00000000000000E+00   0.00000000000000E+00   0.00000000000000E+00   0.00000000000000E+00
      0.00000000000000E+00  -2.04630624589164E-18
      8.67888888888889E-01
      0.00000000000000E+00   0.00000000000000E+00   0.00000000000000E+00   0.00000000000000E+00  -6.06983429302016E-20