DF-ISE text

Info {
  version   = 1.0
  type      = xyplot
  datasets  = [
    "time"
    "substrate OuterVoltage" "substrate InnerVoltage" "substrate QuasiFermiPotential" "substrate DisplacementCurrent" "substrate eCurrent"
    "substrate hCurrent" "substrate TotalCurrent" "substrate Charge" "source OuterVoltage" "source InnerVoltage"
    "source QuasiFermiPotential" "source DisplacementCurrent" "source eCurrent" "source hCurrent" "source TotalCurrent"
    "source Charge" "drain OuterVoltage" "drain InnerVoltage" "drain QuasiFermiPotential" "drain DisplacementCurrent"
    "drain eCurrent" "drain hCurrent" "drain TotalCurrent" "drain Charge" "gate OuterVoltage"
    "gate InnerVoltage" "gate QuasiFermiPotential" "gate DisplacementCurrent" "gate eCurrent" "gate hCurrent"
    "gate TotalCurrent" "gate Charge" ]
  functions = [
    Time
    OuterVoltage InnerVoltage QuasiFermiPotential DisplacementCurrent eCurrent
    hCurrent TotalCurrent Charge OuterVoltage InnerVoltage
    QuasiFermiPotential DisplacementCurrent eCurrent hCurrent TotalCurrent
    Charge OuterVoltage InnerVoltage QuasiFermiPotential DisplacementCurrent
    eCurrent hCurrent TotalCurrent Charge OuterVoltage
    InnerVoltage QuasiFermiPotential DisplacementCurrent eCurrent hCurrent
    TotalCurrent Charge ]
}

Data {
      0.00000000000000E+00
      0.00000000000000E+00   0.00000000000000E+00   0.00000000000000E+00   0.00000000000000E+00   2.98490161917620E-17
      2.14780899320826E-28   2.98490161919768E-17  -4.21880772083358E-15   0.00000000000000E+00   0.00000000000000E+00
      0.00000000000000E+00   0.00000000000000E+00  -1.52545373638761E-17   1.86470851275392E-28  -1.52545373636897E-17
      2.18379135556613E-17   0.00000000000000E+00   0.00000000000000E+00   0.00000000000000E+00   0.00000000000000E+00
     -1.45944788278858E-17  -4.01373307966773E-28  -1.45944788282872E-17   2.18379135556612E-17   4.00000000000000E+00
      4.00000000000000E+00   0.00000000000000E+00   0.00000000000000E+00   0.00000000000000E+00   0.00000000000000E+00
      0.00000000000000E+00   4.17513189372226E-15
      1.00000000000000E-02
      0.00000000000000E+00   0.00000000000000E+00   0.00000000000000E+00   0.00000000000000E+00   3.11459027357532E-18
     -1.23700569485542E-16  -1.20585979211967E-16  -4.23692097722242E-15   0.00000000000000E+00   0.00000000000000E+00
      0.00000000000000E+00   0.00000000000000E+00  -1.71342355014282E-04  -1.23092052595269E-23  -1.71342355014282E-04
      2.22354167189787E-17   3.00000000000000E-02   3.00000000000000E-02   0.00000000000000E+00   0.00000000000000E+00
      1.71342355014403E-04   9.74194961146556E-21   1.71342355014403E-04   5.77036307650800E-17   4.00000000000000E+00
      4.00000000000000E+00   0.00000000000000E+00   0.00000000000000E+00   0.00000000000000E+00   0.00000000000000E+00
      0.00000000000000E+00   4.15698192973837E-15
      2.33333333333333E-02
      0.00000000000000E+00   0.00000000000000E+00   0.00000000000000E+00   0.00000000000000E+00   4.66647469133763E-14
     -2.69552742617170E-16   4.63951941707592E-14  -4.26083564946726E-15   0.00000000000000E+00   0.00000000000000E+00
      0.00000000000000E+00   0.00000000000000E+00  -3.72737777072618E-04  -2.77397710044412E-23  -3.72737777072618E-04
      2.25609901028619E-17   7.00000000000000E-02   7.00000000000000E-02   0.00000000000000E+00   0.00000000000000E+00
      3.72737777026223E-04   1.29347800355316E-20   3.72737777026223E-04   1.05444669725772E-16   4.00000000000000E+00
      4.00000000000000E+00   0.00000000000000E+00   0.00000000000000E+00   0.00000000000000E+00   0.00000000000000E+00
      0.00000000000000E+00   4.13282998963862E-15
      4.28888888888889E-02
      0.00000000000000E+00   0.00000000000000E+00   0.00000000000000E+00   0.00000000000000E+00   1.35915131181895E-18
     -4.42438870949941E-16  -4.41079719638123E-16  -4.29549074154046E-15   0.00000000000000E+00   0.00000000000000E+00
      0.00000000000000E+00   0.00000000000000E+00  -6.17434483737960E-04  -4.44690063141752E-23  -6.17434483737960E-04
      2.26719425869081E-17   1.28666666666667E-01   1.28666666666667E-01   0.00000000000000E+00   0.00000000000000E+00
      6.17434483738401E-04   1.34922670608818E-20   6.17434483738401E-04   1.75278516350723E-16   4.00000000000000E+00
      4.00000000000000E+00   0.00000000000000E+00   0.00000000000000E+00   0.00000000000000E+00   0.00000000000000E+00
      0.00000000000000E+00   4.09754028260282E-15
      6.78888888888889E-02
      0.00000000000000E+00   0.00000000000000E+00   0.00000000000000E+00   0.00000000000000E+00  -2.75210684138088E-17
     -5.77386621808650E-16  -6.04907690222459E-16  -4.33923513286987E-15   0.00000000000000E+00   0.00000000000000E+00
      0.00000000000000E+00   0.00000000000000E+00  -8.58547613075639E-04  -6.19114200656160E-23  -8.58547613075639E-04
      2.23339168703330E-17   2.03666666666667E-01   2.03666666666667E-01   0.00000000000000E+00   0.00000000000000E+00
      8.58547613076243E-04   1.35618651844685E-20   8.58547613076243E-04   2.64155004827657E-16   4.00000000000000E+00
      4.00000000000000E+00   0.00000000000000E+00   0.00000000000000E+00   0.00000000000000E+00   0.00000000000000E+00
      0.00000000000000E+00   4.05274621117187E-15
      9.28888888888889E-02
      0.00000000000000E+00   0.00000000000000E+00   0.00000000000000E+00   0.00000000000000E+00  -4.58677303340079E-18
     -6.52198644483036E-16  -6.56785417516437E-16  -4.38257239847175E-15   0.00000000000000E+00   0.00000000000000E+00
      0.00000000000000E+00   0.00000000000000E+00  -1.03827038041315E-03  -7.49385484558453E-23  -1.03827038041315E-03
      2.16368030931364E-17   2.78666666666667E-01   2.78666666666667E-01   0.00000000000000E+00   0.00000000000000E+00
      1.03827038041381E-03   1.37203108941846E-20   1.03827038041381E-03   3.52490701681704E-16   4.00000000000000E+00
      4.00000000000000E+00   0.00000000000000E+00   0.00000000000000E+00   0.00000000000000E+00   0.00000000000000E+00
      0.00000000000000E+00   4.00844489369691E-15
      1.17888888888889E-01
      0.00000000000000E+00   0.00000000000000E+00   0.00000000000000E+00   0.00000000000000E+00   2.18584508933291E-17
     -6.95262531768133E-16  -6.73404080874803E-16  -4.42572127837455E-15   0.00000000000000E+00   0.00000000000000E+00
      0.00000000000000E+00   0.00000000000000E+00  -1.17268766375941E-03  -8.46961929564437E-23  -1.17268766375941E-03
      2.07274147530719E-17   3.53666666666667E-01   3.53666666666667E-01   0.00000000000000E+00   0.00000000000000E+00
      1.17268766376008E-03   1.38466423556740E-20   1.17268766376008E-03   4.40208957894204E-16   4.00000000000000E+00
      4.00000000000000E+00   0.00000000000000E+00   0.00000000000000E+00   0.00000000000000E+00   0.00000000000000E+00
      0.00000000000000E+00   3.96478490572727E-15
      1.42888888888889E-01
      0.00000000000000E+00   0.00000000000000E+00   0.00000000000000E+00   0.00000000000000E+00  -3.05781745897511E-18
     -7.26089472409941E-16  -7.29147289868916E-16  -4.46887764397558E-15   0.00000000000000E+00   0.00000000000000E+00
      0.00000000000000E+00   0.00000000000000E+00  -1.27378498012209E-03  -9.20421743556831E-23  -1.27378498012209E-03
      1.97092925543995E-17   4.28666666666667E-01   4.28666666666667E-01   0.00000000000000E+00   0.00000000000000E+00
      1.27378498012282E-03   1.39421891126856E-20   1.27378498012282E-03   5.27260013019828E-16   4.00000000000000E+00
      4.00000000000000E+00   0.00000000000000E+00   0.00000000000000E+00   0.00000000000000E+00   0.00000000000000E+00
      0.00000000000000E+00   3.92190833840135E-15
      1.67888888888889E-01
      0.00000000000000E+00   0.00000000000000E+00   0.00000000000000E+00   0.00000000000000E+00  -8.15432620037933E-18
     -7.53888465572817E-16  -7.62042791773197E-16  -4.51219382751034E-15   0.00000000000000E+00   0.00000000000000E+00
      0.00000000000000E+00   0.00000000000000E+00  -1.35042630849479E-03  -9.76149635322915E-23  -1.35042630849479E-03
      1.86512248530110E-17   5.03666666666667E-01   5.03666666666667E-01   0.00000000000000E+00   0.00000000000000E+00
      1.35042630849555E-03   1.40140603808728E-20   1.35042630849555E-03   6.13605259071235E-16   4.00000000000000E+00
      4.00000000000000E+00   0.00000000000000E+00   0.00000000000000E+00   0.00000000000000E+00   0.00000000000000E+00
      0.00000000000000E+00   3.87993734358609E-15
      1.92888888888889E-01
      0.00000000000000E+00   0.00000000000000E+00   0.00000000000000E+00   0.00000000000000E+00   2.10656633703148E-17
     -7.77384789323042E-16  -7.56319125952728E-16  -4.55572887471942E-15   0.00000000000000E+00   0.00000000000000E+00
      0.00000000000000E+00   0.00000000000000E+00  -1.40918375745018E-03  -1.01890906357108E-22  -1.40918375745018E-03
      1.75941806165278E-17   5.78666666666667E-01   5.78666666666667E-01   0.00000000000000E+00   0.00000000000000E+00
      1.40918375745094E-03   1.40689379762285E-20   1.40918375745094E-03   6.99174071619092E-16   4.00000000000000E+00
      4.00000000000000E+00   0.00000000000000E+00   0.00000000000000E+00   0.00000000000000E+00   0.00000000000000E+00
      0.00000000000000E+00   3.83896062248379E-15
      2.17888888888889E-01
      0.00000000000000E+00   0.00000000000000E+00   0.00000000000000E+00   0.00000000000000E+00  -3.47694308846564E-17
     -7.95449050783413E-16  -8.30218481668069E-16  -4.59939429463042E-15   0.00000000000000E+00   0.00000000000000E+00
      0.00000000000000E+00   0.00000000000000E+00  -1.45494797693557E-03  -1.05223327587949E-22  -1.45494797693557E-03
      1.65575025091138E-17   6.53666666666667E-01   6.53666666666667E-01   0.00000000000000E+00   0.00000000000000E+00
      1.45494797693640E-03   1.41111898785411E-20   1.45494797693640E-03   7.83812856868397E-16   4.00000000000000E+00
      4.00000000000000E+00   0.00000000000000E+00   0.00000000000000E+00   0.00000000000000E+00   0.00000000000000E+00
      0.00000000000000E+00   3.79902393525290E-15
      2.42888888888889E-01
      0.00000000000000E+00   0.00000000000000E+00   0.00000000000000E+00   0.00000000000000E+00  -9.17362618321649E-18
     -8.13715829527358E-16  -8.22889455710575E-16  -4.64293160186848E-15   0.00000000000000E+00   0.00000000000000E+00
      0.00000000000000E+00   0.00000000000000E+00  -1.49133916353403E-03  -1.07874147885183E-22  -1.49133916353403E-03
      1.55455703804893E-17   7.28666666666667E-01   7.28666666666667E-01   0.00000000000000E+00   0.00000000000000E+00
      1.49133916353485E-03   1.41435172055893E-20   1.49133916353485E-03   8.67253815725379E-16   4.00000000000000E+00
      4.00000000000000E+00   0.00000000000000E+00   0.00000000000000E+00   0.00000000000000E+00   0.00000000000000E+00
      0.00000000000000E+00   3.76013221576261E-15
      2.67888888888889E-01
      0.00000000000000E+00   0.00000000000000E+00   0.00000000000000E+00   0.00000000000000E+00   8.38101874448307E-18
     -8.36199437143404E-16  -8.27818418398921E-16  -4.68596861585671E-15   0.00000000000000E+00   0.00000000000000E+00
      0.00000000000000E+00   0.00000000000000E+00  -1.52099463800486E-03  -1.10035515978437E-22  -1.52099463800486E-03
      1.45543652529244E-17   8.03666666666667E-01   8.03666666666667E-01   0.00000000000000E+00   0.00000000000000E+00
      1.52099463800569E-03   1.41683384977906E-20   1.52099463800569E-03   9.49156146861574E-16   4.00000000000000E+00
      4.00000000000000E+00   0.00000000000000E+00   0.00000000000000E+00   0.00000000000000E+00   0.00000000000000E+00
      0.00000000000000E+00   3.72225810374222E-15
      2.92888888888889E-01
      0.00000000000000E+00   0.00000000000000E+00   0.00000000000000E+00   0.00000000000000E+00  -4.07711557814760E-18
     -8.62251661460356E-16  -8.66328777038503E-16  -4.72821699899375E-15   0.00000000000000E+00   0.00000000000000E+00
      0.00000000000000E+00   0.00000000000000E+00  -1.54581671885282E-03  -1.11845385209962E-22  -1.54581671885282E-03
      1.35763196346714E-17   8.78666666666667E-01   8.78666666666667E-01   0.00000000000000E+00   0.00000000000000E+00
      1.54581671885368E-03   1.41884870964943E-20   1.54581671885368E-03   1.02929973682659E-15   4.00000000000000E+00
      4.00000000000000E+00   0.00000000000000E+00   0.00000000000000E+00   0.00000000000000E+00   0.00000000000000E+00
      0.00000000000000E+00   3.68534094253249E-15
      3.17888888888889E-01
      0.00000000000000E+00   0.00000000000000E+00   0.00000000000000E+00   0.00000000000000E+00  -6.90850944075889E-18
     -8.89909264785482E-16  -8.96817774226241E-16  -4.76972063423342E-15   0.00000000000000E+00   0.00000000000000E+00
      0.00000000000000E+00   0.00000000000000E+00  -1.56718589898886E-03  -1.13404118330655E-22  -1.56718589898886E-03
      1.26029292451300E-17   9.53666666666667E-01   9.53666666666667E-01   0.00000000000000E+00   0.00000000000000E+00
      1.56718589898976E-03   1.42057285738273E-20   1.56718589898976E-03   1.10783954798206E-15   4.00000000000000E+00
      4.00000000000000E+00   0.00000000000000E+00   0.00000000000000E+00   0.00000000000000E+00   0.00000000000000E+00
      0.00000000000000E+00   3.64927815700623E-15
      3.42888888888889E-01
      0.00000000000000E+00   0.00000000000000E+00   0.00000000000000E+00   0.00000000000000E+00   8.38101995757078E-18
     -9.16586772658497E-16  -9.08205752700927E-16  -4.81082292468651E-15   0.00000000000000E+00   0.00000000000000E+00
      0.00000000000000E+00   0.00000000000000E+00  -1.58610108157133E-03  -1.14784519649051E-22  -1.58610108157133E-03
      1.16262186740134E-17   1.02866666666667E+00   1.02866666666667E+00   0.00000000000000E+00   0.00000000000000E+00
      1.58610108157224E-03   1.42210383501634E-20   1.58610108157224E-03   1.18526113714975E-15   4.00000000000000E+00
      4.00000000000000E+00   0.00000000000000E+00   0.00000000000000E+00   0.00000000000000E+00   0.00000000000000E+00
      0.00000000000000E+00   3.61393556886275E-15
      3.67888888888889E-01
      0.00000000000000E+00   0.00000000000000E+00   0.00000000000000E+00   0.00000000000000E+00   1.01931126340154E-17
     -9.39220984659282E-16  -9.29027872025266E-16  -4.85186490797379E-15   0.00000000000000E+00   0.00000000000000E+00
      0.00000000000000E+00   0.00000000000000E+00  -1.60326079972782E-03  -1.16037147228485E-22  -1.60326079972782E-03
      1.06397167810247E-17   1.10366666666667E+00   1.10366666666667E+00   0.00000000000000E+00   0.00000000000000E+00
      1.60326079972875E-03   1.42350149807970E-20   1.60326079972875E-03   1.26204450727315E-15   4.00000000000000E+00
      4.00000000000000E+00   0.00000000000000E+00   0.00000000000000E+00   0.00000000000000E+00   0.00000000000000E+00
      0.00000000000000E+00   3.57918068391962E-15
      3.92888888888889E-01
      0.00000000000000E+00   0.00000000000000E+00   0.00000000000000E+00   0.00000000000000E+00  -7.92696783391897E-19
     -9.59245403532241E-16  -9.60038100315633E-16  -4.89302551711847E-15   0.00000000000000E+00   0.00000000000000E+00
      0.00000000000000E+00   0.00000000000000E+00  -1.61913205241342E-03  -1.17196012479519E-22  -1.61913205241342E-03
      9.63861238233216E-18   1.17866666666667E+00   1.17866666666667E+00   0.00000000000000E+00   0.00000000000000E+00
      1.61913205241438E-03   1.42480216076819E-20   1.61913205241438E-03   1.33847514623859E-15   4.00000000000000E+00
      4.00000000000000E+00   0.00000000000000E+00   0.00000000000000E+00   0.00000000000000E+00   0.00000000000000E+00
      0.00000000000000E+00   3.54491175849754E-15
      4.17888888888889E-01
      0.00000000000000E+00   0.00000000000000E+00   0.00000000000000E+00   0.00000000000000E+00  -1.17785062190128E-17
     -9.79942236298889E-16  -9.91720742517902E-16  -4.93437814451889E-15   0.00000000000000E+00   0.00000000000000E+00
      0.00000000000000E+00   0.00000000000000E+00  -1.63401791838014E-03  -1.18283356783545E-22  -1.63401791838014E-03
      8.61921112668065E-18   1.25366666666667E+00   1.25366666666667E+00   0.00000000000000E+00   0.00000000000000E+00
      1.63401791838113E-03   1.42602752855653E-20   1.63401791838113E-03   1.41469061983960E-15   4.00000000000000E+00
      4.00000000000000E+00   0.00000000000000E+00   0.00000000000000E+00   0.00000000000000E+00   0.00000000000000E+00
      0.00000000000000E+00   3.51106831355261E-15
      4.42888888888889E-01
      0.00000000000000E+00   0.00000000000000E+00   0.00000000000000E+00   0.00000000000000E+00   8.83404431748243E-18
     -1.00321611191057E-15  -9.94382067593085E-16  -4.97597471286218E-15   0.00000000000000E+00   0.00000000000000E+00
      0.00000000000000E+00   0.00000000000000E+00  -1.64811233633505E-03  -1.19313374855791E-22  -1.64811233633505E-03
      7.57834868124413E-18   1.32866666666667E+00   1.32866666666667E+00   0.00000000000000E+00   0.00000000000000E+00
      1.64811233633604E-03   1.42718947964589E-20   1.64811233633604E-03   1.49076669372027E-15   4.00000000000000E+00
      4.00000000000000E+00   0.00000000000000E+00   0.00000000000000E+00   0.00000000000000E+00   0.00000000000000E+00
      0.00000000000000E+00   3.47762967046066E-15
      4.67888888888889E-01
      0.00000000000000E+00   0.00000000000000E+00   0.00000000000000E+00   0.00000000000000E+00  -1.34773422118182E-17
     -1.02918154182186E-15  -1.04265888403368E-15  -5.01786831684561E-15   0.00000000000000E+00   0.00000000000000E+00
      0.00000000000000E+00   0.00000000000000E+00  -1.66154243060896E-03  -1.20295291230814E-22  -1.66154243060896E-03
      6.51297907102887E-18   1.40366666666667E+00   1.40366666666667E+00   0.00000000000000E+00   0.00000000000000E+00
      1.66154243061001E-03   1.42829706680823E-20   1.66154243061001E-03   1.56675571405152E-15   4.00000000000000E+00
      4.00000000000000E+00   0.00000000000000E+00   0.00000000000000E+00   0.00000000000000E+00   0.00000000000000E+00
      0.00000000000000E+00   3.44459962372306E-15
      4.92888888888889E-01
      0.00000000000000E+00   0.00000000000000E+00   0.00000000000000E+00   0.00000000000000E+00  -1.29110631007736E-17
     -1.05645033574687E-15  -1.06936139884764E-15  -5.06012544735675E-15   0.00000000000000E+00   0.00000000000000E+00
      0.00000000000000E+00   0.00000000000000E+00  -1.67439175531664E-03  -1.21234775610909E-22  -1.67439175531664E-03
      5.42035399784652E-18   1.47866666666667E+00   1.47866666666667E+00   0.00000000000000E+00   0.00000000000000E+00
      1.67439175531771E-03   1.42935626066525E-20   1.67439175531771E-03   1.64270350049834E-15   4.00000000000000E+00
      4.00000000000000E+00   0.00000000000000E+00   0.00000000000000E+00   0.00000000000000E+00   0.00000000000000E+00
      0.00000000000000E+00   3.41200159286056E-15
      5.17888888888889E-01
      0.00000000000000E+00   0.00000000000000E+00   0.00000000000000E+00   0.00000000000000E+00  -7.58804163814835E-18
     -1.08552983700863E-15  -1.09311787864678E-15  -5.10271992644132E-15   0.00000000000000E+00   0.00000000000000E+00
      0.00000000000000E+00   0.00000000000000E+00  -1.68673704073466E-03  -1.22137822776183E-22  -1.68673704073466E-03
      4.29759212442257E-18   1.55366666666667E+00   1.55366666666667E+00   0.00000000000000E+00   0.00000000000000E+00
      1.68673704073575E-03   1.43037477073599E-20   1.68673704073575E-03   1.71860258258218E-15   4.00000000000000E+00
      4.00000000000000E+00   0.00000000000000E+00   0.00000000000000E+00   0.00000000000000E+00   0.00000000000000E+00
      0.00000000000000E+00   3.37981975173472E-15
      5.42888888888889E-01
      0.00000000000000E+00   0.00000000000000E+00   0.00000000000000E+00   0.00000000000000E+00   1.30245088440603E-17
     -1.12378586049014E-15  -1.11076135164608E-15  -5.14558059695994E-15   0.00000000000000E+00   0.00000000000000E+00
      0.00000000000000E+00   0.00000000000000E+00  -1.69864845278243E-03  -1.23009312153343E-22  -1.69864845278243E-03
      3.14242805499656E-18   1.62866666666667E+00   1.62866666666667E+00   0.00000000000000E+00   0.00000000000000E+00
      1.69864845278354E-03   1.43135938956092E-20   1.69864845278354E-03   1.79442558083121E-15   4.00000000000000E+00
      4.00000000000000E+00   0.00000000000000E+00   0.00000000000000E+00   0.00000000000000E+00   0.00000000000000E+00
      0.00000000000000E+00   3.34801258807374E-15
      5.67888888888889E-01
      0.00000000000000E+00   0.00000000000000E+00   0.00000000000000E+00   0.00000000000000E+00   1.41570667843941E-17
     -1.18710839119280E-15  -1.17295132440840E-15  -5.18859794873136E-15   0.00000000000000E+00   0.00000000000000E+00
      0.00000000000000E+00   0.00000000000000E+00  -1.71019159519592E-03  -1.23854295364975E-22  -1.71019159519592E-03
      1.95365024332580E-18   1.70366666666667E+00   1.70366666666667E+00   0.00000000000000E+00   0.00000000000000E+00
      1.71019159519709E-03   1.43231650956900E-20   1.71019159519709E-03   1.87013009582568E-15   4.00000000000000E+00
      4.00000000000000E+00   0.00000000000000E+00   0.00000000000000E+00   0.00000000000000E+00   0.00000000000000E+00
      0.00000000000000E+00   3.31651420266235E-15
      5.92888888888889E-01
      0.00000000000000E+00   0.00000000000000E+00   0.00000000000000E+00   0.00000000000000E+00  -2.17450122509532E-17
     -1.28642423602155E-15  -1.30816924827250E-15  -5.23166777993530E-15   0.00000000000000E+00   0.00000000000000E+00
      0.00000000000000E+00   0.00000000000000E+00  -1.72142028284077E-03  -1.24676684615170E-22  -1.72142028284077E-03
      7.31457967196100E-19   1.77866666666667E+00   1.77866666666667E+00   0.00000000000000E+00   0.00000000000000E+00
      1.72142028284207E-03   1.43325117295054E-20   1.72142028284207E-03   1.94567860456371E-15   4.00000000000000E+00
      4.00000000000000E+00   0.00000000000000E+00   0.00000000000000E+00   0.00000000000000E+00   0.00000000000000E+00
      0.00000000000000E+00   3.28525771740439E-15
      6.17888888888889E-01
      0.00000000000000E+00   0.00000000000000E+00   0.00000000000000E+00   0.00000000000000E+00  -1.22315272799867E-17
     -1.40001981493842E-15  -1.41225134221841E-15  -5.27471087785693E-15   0.00000000000000E+00   0.00000000000000E+00
      0.00000000000000E+00   0.00000000000000E+00  -1.73237494770358E-03  -1.25479594340562E-22  -1.73237494770358E-03
     -5.22843057112042E-19   1.85366666666667E+00   1.85366666666667E+00   0.00000000000000E+00   0.00000000000000E+00
      1.73237494770499E-03   1.43416655627126E-20   1.73237494770499E-03   2.02104533656707E-15   4.00000000000000E+00
      4.00000000000000E+00   0.00000000000000E+00   0.00000000000000E+00   0.00000000000000E+00   0.00000000000000E+00
      0.00000000000000E+00   3.25418838434697E-15
      6.42888888888889E-01
      0.00000000000000E+00   0.00000000000000E+00   0.00000000000000E+00   0.00000000000000E+00  -5.49437710173964E-15
     -1.49043564272280E-15  -6.98481274446245E-15  -5.31767117807503E-15   0.00000000000000E+00   0.00000000000000E+00
      0.00000000000000E+00   0.00000000000000E+00  -1.74308590211101E-03  -1.26324523734584E-22  -1.74308590211101E-03
     -1.80752850818634E-18   1.92866666666667E+00   1.92866666666667E+00   0.00000000000000E+00   0.00000000000000E+00
      1.74308590211799E-03   1.43367779267576E-20   1.74308590211799E-03   2.09621393227499E-15   4.00000000000000E+00
      4.00000000000000E+00   0.00000000000000E+00   0.00000000000000E+00   0.00000000000000E+00   0.00000000000000E+00
      0.00000000000000E+00   3.22326477430822E-15
      6.67888888888889E-01
      0.00000000000000E+00   0.00000000000000E+00   0.00000000000000E+00   0.00000000000000E+00  -4.76002668508040E-15
     -1.54895931358510E-15  -6.30898599866550E-15  -5.36050804957449E-15   0.00000000000000E+00   0.00000000000000E+00
      0.00000000000000E+00   0.00000000000000E+00  -1.75357653073870E-03  -1.27078444591477E-22  -1.75357653073870E-03
     -3.12099978567407E-18   2.00366666666667E+00   2.00366666666667E+00   0.00000000000000E+00   0.00000000000000E+00
      1.75357653074501E-03   1.43591631538790E-20   1.75357653074501E-03   2.17117246001063E-15   4.00000000000000E+00
      4.00000000000000E+00   0.00000000000000E+00   0.00000000000000E+00   0.00000000000000E+00   0.00000000000000E+00
      0.00000000000000E+00   3.19245658934953E-15
      6.92888888888889E-01
      0.00000000000000E+00   0.00000000000000E+00   0.00000000000000E+00   0.00000000000000E+00  -2.42469269556651E-15
     -1.58465701515981E-15  -4.00934971072632E-15  -5.40319000496413E-15   0.00000000000000E+00   0.00000000000000E+00
      0.00000000000000E+00   0.00000000000000E+00  -1.76386488933478E-03  -1.27819483317884E-22  -1.76386488933478E-03
     -4.46199151785307E-18   2.07866666666667E+00   2.07866666666667E+00   0.00000000000000E+00   0.00000000000000E+00
      1.76386488933879E-03   1.43681995392857E-20   1.76386488933879E-03   2.24590954444648E-15   4.00000000000000E+00
      4.00000000000000E+00   0.00000000000000E+00   0.00000000000000E+00   0.00000000000000E+00   0.00000000000000E+00
      0.00000000000000E+00   3.16174245203550E-15
      7.17888888888889E-01
      0.00000000000000E+00   0.00000000000000E+00   0.00000000000000E+00   0.00000000000000E+00  -2.12218653211313E-15
     -1.60542199974915E-15  -3.72760853186228E-15  -5.44569553854146E-15   0.00000000000000E+00   0.00000000000000E+00
      0.00000000000000E+00   0.00000000000000E+00  -1.77396359970208E-03  -1.28548780441918E-22  -1.77396359970208E-03
     -5.82946765875155E-18   2.15366666666667E+00   2.15366666666667E+00   0.00000000000000E+00   0.00000000000000E+00
      1.77396359970581E-03   1.43767807248266E-20   1.77396359970581E-03   2.32041501690993E-15   4.00000000000000E+00
      4.00000000000000E+00   0.00000000000000E+00   0.00000000000000E+00   0.00000000000000E+00   0.00000000000000E+00
      0.00000000000000E+00   3.13110998929028E-15
      7.42888888888889E-01
      0.00000000000000E+00   0.00000000000000E+00   0.00000000000000E+00   0.00000000000000E+00   1.67584573438051E-15
     -1.61794740425172E-15   5.78983301287893E-17  -5.48801841198760E-15   0.00000000000000E+00   0.00000000000000E+00
      0.00000000000000E+00   0.00000000000000E+00  -1.78387938111988E-03  -1.29269361907258E-22  -1.78387938111988E-03
     -7.22235968432982E-18   2.22866666666667E+00   2.22866666666667E+00   0.00000000000000E+00   0.00000000000000E+00
      1.78387938111982E-03   1.43852244571115E-20   1.78387938111982E-03   2.39468402091614E-15   4.00000000000000E+00
      4.00000000000000E+00   0.00000000000000E+00   0.00000000000000E+00   0.00000000000000E+00   0.00000000000000E+00
      0.00000000000000E+00   3.10055675075579E-15
      7.67888888888889E-01
      0.00000000000000E+00   0.00000000000000E+00   0.00000000000000E+00   0.00000000000000E+00   2.64418257304414E-15
     -1.62760678291451E-15   1.01657579012964E-15  -5.53012484526616E-15   0.00000000000000E+00   0.00000000000000E+00
      0.00000000000000E+00   0.00000000000000E+00  -1.79362109649082E-03  -1.29982173564879E-22  -1.79362109649082E-03
     -8.63980039834876E-18   2.30366666666667E+00   2.30366666666667E+00   0.00000000000000E+00   0.00000000000000E+00
      1.79362109648980E-03   1.43930425293382E-20   1.79362109648980E-03   2.46869148108088E-15   4.00000000000000E+00
      4.00000000000000E+00   0.00000000000000E+00   0.00000000000000E+00   0.00000000000000E+00   0.00000000000000E+00
      0.00000000000000E+00   3.07007316458362E-15
      7.92888888888889E-01
      0.00000000000000E+00   0.00000000000000E+00   0.00000000000000E+00   0.00000000000000E+00   3.35588183558226E-15
     -1.63820584994867E-15   1.71767598563359E-15  -5.57200508263416E-15   0.00000000000000E+00   0.00000000000000E+00
      0.00000000000000E+00   0.00000000000000E+00  -1.80319199666168E-03  -1.30684823955248E-22  -1.80319199666168E-03
     -1.00803750553007E-17   2.37866666666667E+00   2.37866666666667E+00   0.00000000000000E+00   0.00000000000000E+00
      1.80319199665997E-03   1.43969122467210E-20   1.80319199665997E-03   2.54242593375113E-15   4.00000000000000E+00
      4.00000000000000E+00   0.00000000000000E+00   0.00000000000000E+00   0.00000000000000E+00   0.00000000000000E+00
      0.00000000000000E+00   3.03965952393832E-15
      8.17888888888889E-01
      0.00000000000000E+00   0.00000000000000E+00   0.00000000000000E+00   0.00000000000000E+00   4.09368655323635E-15
     -1.65194458526426E-15   2.44174196797209E-15  -5.61365064463881E-15   0.00000000000000E+00   0.00000000000000E+00
      0.00000000000000E+00   0.00000000000000E+00  -1.81259429995907E-03  -1.31374829351871E-22  -1.81259429995907E-03
     -1.15422194535787E-17   2.45366666666667E+00   2.45366666666667E+00   0.00000000000000E+00   0.00000000000000E+00
      1.81259429995663E-03   1.43846328826674E-20   1.81259429995663E-03   2.61587637821502E-15   4.00000000000000E+00
      4.00000000000000E+00   0.00000000000000E+00   0.00000000000000E+00   0.00000000000000E+00   0.00000000000000E+00
      0.00000000000000E+00   3.00931648587738E-15
      8.42888888888889E-01
      0.00000000000000E+00   0.00000000000000E+00   0.00000000000000E+00   0.00000000000000E+00   4.91722588921409E-15
     -1.66908815080094E-15   3.24813773841315E-15  -5.65505527803460E-15   0.00000000000000E+00   0.00000000000000E+00
      0.00000000000000E+00   0.00000000000000E+00  -1.82182933655370E-03  -1.32050305753237E-22  -1.82182933655370E-03
     -1.30229915744814E-17   2.52866666666667E+00   2.52866666666667E+00   0.00000000000000E+00   0.00000000000000E+00
      1.82182933655045E-03   1.44097990218865E-20   1.82182933655045E-03   2.68903378051062E-15   4.00000000000000E+00
      4.00000000000000E+00   0.00000000000000E+00   0.00000000000000E+00   0.00000000000000E+00   0.00000000000000E+00
      0.00000000000000E+00   2.97904448909846E-15
      8.67888888888889E-01
      0.00000000000000E+00   0.00000000000000E+00   0.00000000000000E+00   0.00000000000000E+00   5.10075686566771E-15