DF-ISE text

Info {
  version   = 1.0
  type      = xyplot
  datasets  = [
    "time"
    "substrate OuterVoltage" "substrate InnerVoltage" "substrate QuasiFermiPotential" "substrate DisplacementCurrent" "substrate eCurrent"
    "substrate hCurrent" "substrate TotalCurrent" "substrate Charge" "source OuterVoltage" "source InnerVoltage"
    "source QuasiFermiPotential" "source DisplacementCurrent" "source eCurrent" "source hCurrent" "source TotalCurrent"
    "source Charge" "drain OuterVoltage" "drain InnerVoltage" "drain QuasiFermiPotential" "drain DisplacementCurrent"
    "drain eCurrent" "drain hCurrent" "drain TotalCurrent" "drain Charge" "gate OuterVoltage"
    "gate InnerVoltage" "gate QuasiFermiPotential" "gate DisplacementCurrent" "gate eCurrent" "gate hCurrent"
    "gate TotalCurrent" "gate Charge" ]
  functions = [
    Time
    OuterVoltage InnerVoltage QuasiFermiPotential DisplacementCurrent eCurrent
    hCurrent TotalCurrent Charge OuterVoltage InnerVoltage
    QuasiFermiPotential DisplacementCurrent eCurrent hCurrent TotalCurrent
    Charge OuterVoltage InnerVoltage QuasiFermiPotential DisplacementCurrent
    eCurrent hCurrent TotalCurrent Charge OuterVoltage
    InnerVoltage QuasiFermiPotential DisplacementCurrent eCurrent hCurrent
    TotalCurrent Charge ]
}

Data {
      0.00000000000000E+00
      0.00000000000000E+00   0.00000000000000E+00   0.00000000000000E+00   0.00000000000000E+00  -1.71042669391805E-22
     -6.13073803487773E-25  -1.71655743195293E-22  -3.48450293975796E-15   0.00000000000000E+00   0.00000000000000E+00
      0.00000000000000E+00   0.00000000000000E+00  -2.25526243457527E-23   4.11419957276967E-25  -2.21412043884757E-23
      1.63581688033879E-15   0.00000000000000E+00   0.00000000000000E+00   0.00000000000000E+00   0.00000000000000E+00
      1.93595293599293E-22   2.01653984475996E-25   1.93796947583769E-22   1.63581688033879E-15   0.00000000000000E+00
      0.00000000000000E+00   0.00000000000000E+00   0.00000000000000E+00   0.00000000000000E+00   0.00000000000000E+00
      0.00000000000000E+00   2.12869179080369E-16
      1.00000000000000E-02
      0.00000000000000E+00   0.00000000000000E+00   0.00000000000000E+00   0.00000000000000E+00   4.54088075017941E-19
     -2.52301287833265E-17  -2.47760407083086E-17  -3.51928875925001E-15   0.00000000000000E+00   0.00000000000000E+00
      0.00000000000000E+00   0.00000000000000E+00  -1.38719756161217E-19  -2.65357572387900E-25  -1.38720021518789E-19
      1.63581688033878E-15   3.00000000000000E-02   3.00000000000000E-02   0.00000000000000E+00   0.00000000000000E+00
      2.48917629743284E-17   2.29977554989570E-20   2.49147607298273E-17   1.67322264193774E-15   0.00000000000000E+00
      0.00000000000000E+00   0.00000000000000E+00   0.00000000000000E+00   0.00000000000000E+00   0.00000000000000E+00
      0.00000000000000E+00   2.10249236973488E-16
      2.33333333333333E-02
      0.00000000000000E+00   0.00000000000000E+00   0.00000000000000E+00   0.00000000000000E+00   2.14352065165901E-17
     -5.43943528659783E-17  -3.29591463493882E-17  -3.56478866784132E-15   0.00000000000000E+00   0.00000000000000E+00
      0.00000000000000E+00   0.00000000000000E+00  -1.84070912719731E-19   1.59213240655201E-25  -1.84070753506491E-19
      1.63581688033881E-15   7.00000000000000E-02   7.00000000000000E-02   0.00000000000000E+00   0.00000000000000E+00
      3.31422728444302E-17   9.44258464489910E-22   3.31432171028947E-17   1.72220328947510E-15   0.00000000000000E+00
      0.00000000000000E+00   0.00000000000000E+00   0.00000000000000E+00   0.00000000000000E+00   0.00000000000000E+00
      0.00000000000000E+00   2.06768498027393E-16
      4.28888888888889E-02
      0.00000000000000E+00   0.00000000000000E+00   0.00000000000000E+00   0.00000000000000E+00  -5.84509128163545E-20
     -1.06025646527165E-16  -1.06084097439981E-16  -3.62968279986956E-15   0.00000000000000E+00   0.00000000000000E+00
      0.00000000000000E+00   0.00000000000000E+00  -1.91470035076837E-19   3.88294213999339E-25  -1.91469646782623E-19
      1.63581688033874E-15   1.28666666666667E-01   1.28666666666667E-01   0.00000000000000E+00   0.00000000000000E+00
      1.06233897056670E-16   4.16700300931816E-20   1.06275567086763E-16   1.79217430166532E-15   0.00000000000000E+00
      0.00000000000000E+00   0.00000000000000E+00   0.00000000000000E+00   0.00000000000000E+00   0.00000000000000E+00
      0.00000000000000E+00   2.01691617865492E-16
      6.78888888888889E-02
      0.00000000000000E+00   0.00000000000000E+00   0.00000000000000E+00   0.00000000000000E+00  -5.85079766212613E-20
     -2.15881134452699E-16  -2.15939642429321E-16  -3.70952388578798E-15   0.00000000000000E+00   0.00000000000000E+00
      0.00000000000000E+00   0.00000000000000E+00  -1.91608569843819E-19  -6.00596959981330E-25  -1.91609170440779E-19
      1.63581688033869E-15   2.03666666666667E-01   2.03666666666667E-01   0.00000000000000E+00   0.00000000000000E+00
      2.16093661819693E-16   3.75897800686617E-20   2.16131251599761E-16   1.87845109304357E-15   0.00000000000000E+00
      0.00000000000000E+00   0.00000000000000E+00   0.00000000000000E+00   0.00000000000000E+00   0.00000000000000E+00
      0.00000000000000E+00   1.95255912405718E-16
      9.28888888888889E-02
      0.00000000000000E+00   0.00000000000000E+00   0.00000000000000E+00   0.00000000000000E+00  -5.78021499110974E-20
     -3.49448142903494E-16  -3.49505945053405E-16  -3.78627060979127E-15   0.00000000000000E+00   0.00000000000000E+00
      0.00000000000000E+00   0.00000000000000E+00  -1.91685556246038E-19   1.23095876985833E-25  -1.91685433150161E-19
      1.63581688033863E-15   2.78666666666667E-01   2.78666666666667E-01   0.00000000000000E+00   0.00000000000000E+00
      3.49676914106390E-16   2.07163801650268E-20   3.49697630486555E-16   1.96156684262606E-15   0.00000000000000E+00
      0.00000000000000E+00   0.00000000000000E+00   0.00000000000000E+00   0.00000000000000E+00   0.00000000000000E+00
      0.00000000000000E+00   1.88886886826569E-16
      1.17888888888889E-01
      0.00000000000000E+00   0.00000000000000E+00   0.00000000000000E+00   0.00000000000000E+00  -5.89219841634142E-20
     -4.37128737613356E-16  -4.37187659597520E-16  -3.86068023565117E-15   0.00000000000000E+00   0.00000000000000E+00
      0.00000000000000E+00   0.00000000000000E+00  -1.92746407493168E-19   4.49470442602692E-25  -1.92745958022725E-19
      1.63581688033858E-15   3.53666666666667E-01   3.53666666666667E-01   0.00000000000000E+00   0.00000000000000E+00
      4.37342596582228E-16   3.78089733149219E-20   4.37380405555543E-16   2.04228111610088E-15   0.00000000000000E+00
      0.00000000000000E+00   0.00000000000000E+00   0.00000000000000E+00   0.00000000000000E+00   0.00000000000000E+00
      0.00000000000000E+00   1.82582239211695E-16
      1.42888888888889E-01
      0.00000000000000E+00   0.00000000000000E+00   0.00000000000000E+00   0.00000000000000E+00  -5.86658264437145E-20
     -4.86203756947244E-16  -4.86262422773688E-16  -3.93351963569324E-15   0.00000000000000E+00   0.00000000000000E+00
      0.00000000000000E+00   0.00000000000000E+00  -1.92712077625596E-19   3.88684108166453E-26  -1.92712038757185E-19
      1.63581688033856E-15   4.28666666666667E-01   4.28666666666667E-01   0.00000000000000E+00   0.00000000000000E+00
      4.86418559068404E-16   3.65757440400687E-20   4.86455134812444E-16   2.12137488396155E-15   0.00000000000000E+00
      0.00000000000000E+00   0.00000000000000E+00   0.00000000000000E+00   0.00000000000000E+00   0.00000000000000E+00
      0.00000000000000E+00   1.76327871393129E-16
      1.67888888888889E-01
      0.00000000000000E+00   0.00000000000000E+00   0.00000000000000E+00   0.00000000000000E+00  -5.87458240295675E-20
     -5.25995386751504E-16  -5.26054132575533E-16  -4.00533176272552E-15   0.00000000000000E+00   0.00000000000000E+00
      0.00000000000000E+00   0.00000000000000E+00  -1.93273979550743E-19   2.98987794151349E-25  -1.93273680562948E-19
      1.63581688033854E-15   5.03666666666667E-01   5.03666666666667E-01   0.00000000000000E+00   0.00000000000000E+00
      5.26210557636453E-16   3.68486196447012E-20   5.26247406256097E-16   2.19941245090767E-15   0.00000000000000E+00
      0.00000000000000E+00   0.00000000000000E+00   0.00000000000000E+00   0.00000000000000E+00   0.00000000000000E+00
      0.00000000000000E+00   1.70102431479301E-16
      1.92888888888889E-01
      0.00000000000000E+00   0.00000000000000E+00   0.00000000000000E+00   0.00000000000000E+00  -5.91023194141525E-20
     -5.59868275165244E-16  -5.59927377484658E-16  -4.07642669792268E-15   0.00000000000000E+00   0.00000000000000E+00
      0.00000000000000E+00   0.00000000000000E+00  -1.93441253524281E-19   1.08601989717014E-25  -1.93441144922291E-19
      1.63581688033852E-15   5.78666666666667E-01   5.78666666666666E-01   0.00000000000000E+00   0.00000000000000E+00
      5.60083982460848E-16   3.68361687316250E-20   5.60120818629580E-16   2.27672363885715E-15   0.00000000000000E+00
      0.00000000000000E+00   0.00000000000000E+00   0.00000000000000E+00   0.00000000000000E+00   0.00000000000000E+00
      0.00000000000000E+00   1.63886178726994E-16
      2.17888888888889E-01
      0.00000000000000E+00   0.00000000000000E+00   0.00000000000000E+00   0.00000000000000E+00  -5.91006998214091E-20
     -5.88482758089457E-16  -5.88541858789278E-16  -4.14695623550134E-15   0.00000000000000E+00   0.00000000000000E+00
      0.00000000000000E+00   0.00000000000000E+00  -1.94122225802954E-19  -1.15119761155901E-26  -1.94122237314930E-19
      1.63581688033851E-15   6.53666666666667E-01   6.53666666666667E-01   0.00000000000000E+00   0.00000000000000E+00
      5.88699164211514E-16   3.68168150787469E-20   5.88735981026593E-16   2.35347357537674E-15   0.00000000000000E+00
      0.00000000000000E+00   0.00000000000000E+00   0.00000000000000E+00   0.00000000000000E+00   0.00000000000000E+00
      0.00000000000000E+00   1.57665779786090E-16
      2.42888888888889E-01
      0.00000000000000E+00   0.00000000000000E+00   0.00000000000000E+00   0.00000000000000E+00  -6.44165091193029E-20
     -6.16422731326077E-16  -6.16487147835196E-16  -4.21697989265436E-15   0.00000000000000E+00   0.00000000000000E+00
      0.00000000000000E+00   0.00000000000000E+00  -1.94310876348847E-19  -4.23273495631011E-26  -1.94310918676196E-19
      1.63581688033849E-15   7.28666666666667E-01   7.28666666666667E-01   0.00000000000000E+00   0.00000000000000E+00
      6.16644683876170E-16   3.67748777027891E-20   6.16681458753872E-16   2.42972909251988E-15   0.00000000000000E+00
      0.00000000000000E+00   0.00000000000000E+00   0.00000000000000E+00   0.00000000000000E+00   0.00000000000000E+00
      0.00000000000000E+00   1.51433919795975E-16
      2.67888888888889E-01
      0.00000000000000E+00   0.00000000000000E+00   0.00000000000000E+00   0.00000000000000E+00  -9.34551377999718E-20
     -6.48217590686284E-16  -6.48311045824084E-16  -4.28650715750813E-15   0.00000000000000E+00   0.00000000000000E+00
      0.00000000000000E+00   0.00000000000000E+00  -1.94829741631628E-19   1.76416479918009E-25  -1.94829565215148E-19
      1.63581688033848E-15   8.03666666666667E-01   8.03666666666667E-01   0.00000000000000E+00   0.00000000000000E+00
      6.48468894850627E-16   3.69805386720381E-20   6.48505875389299E-16   2.50550309395872E-15   0.00000000000000E+00
      0.00000000000000E+00   0.00000000000000E+00   0.00000000000000E+00   0.00000000000000E+00   0.00000000000000E+00
      0.00000000000000E+00   1.45187183210917E-16
      2.92888888888889E-01
      0.00000000000000E+00   0.00000000000000E+00   0.00000000000000E+00   0.00000000000000E+00  -5.76980662053144E-20
     -6.91063324731858E-16  -6.91121022798064E-16  -4.35552196986572E-15   0.00000000000000E+00   0.00000000000000E+00
      0.00000000000000E+00   0.00000000000000E+00  -1.95166632722527E-19   3.18876183376904E-25  -1.95166313846343E-19
      1.63581688033846E-15   8.78666666666667E-01   8.78666666666667E-01   0.00000000000000E+00   0.00000000000000E+00
      6.91279538479326E-16   3.66506325838024E-20   6.91316189111910E-16   2.58078079009065E-15   0.00000000000000E+00
      0.00000000000000E+00   0.00000000000000E+00   0.00000000000000E+00   0.00000000000000E+00   0.00000000000000E+00
      0.00000000000000E+00   1.38924299436601E-16
      3.17888888888889E-01
      0.00000000000000E+00   0.00000000000000E+00   0.00000000000000E+00   0.00000000000000E+00  -5.92844178423862E-20
     -7.51380863876626E-16  -7.51440148294469E-16  -4.42399548834343E-15   0.00000000000000E+00   0.00000000000000E+00
      0.00000000000000E+00   0.00000000000000E+00  -1.95568064358634E-19  -4.88298097333552E-25  -1.95568552656732E-19
      1.63581688033843E-15   9.53666666666667E-01   9.53666666666667E-01   0.00000000000000E+00   0.00000000000000E+00
      7.51599365443005E-16   3.63514041194952E-20   7.51635716847125E-16   2.65553350855287E-15   0.00000000000000E+00
      0.00000000000000E+00   0.00000000000000E+00   0.00000000000000E+00   0.00000000000000E+00   0.00000000000000E+00
      0.00000000000000E+00   1.32645099452124E-16
      3.42888888888889E-01
      0.00000000000000E+00   0.00000000000000E+00   0.00000000000000E+00   0.00000000000000E+00  -5.92407356807266E-20
     -8.32789428784815E-16  -8.32848669520496E-16  -4.49188853683387E-15   0.00000000000000E+00   0.00000000000000E+00
      0.00000000000000E+00   0.00000000000000E+00  -1.96084036187999E-19   4.45392833056688E-25  -1.96083590795166E-19
      1.63581688033839E-15   1.02866666666667E+00   1.02866666666667E+00   0.00000000000000E+00   0.00000000000000E+00
      8.33008008953772E-16   3.67441575186774E-20   8.33044753111291E-16   2.72972169151881E-15   0.00000000000000E+00
      0.00000000000000E+00   0.00000000000000E+00   0.00000000000000E+00   0.00000000000000E+00   0.00000000000000E+00
      0.00000000000000E+00   1.26349964976668E-16
      3.67888888888889E-01
      0.00000000000000E+00   0.00000000000000E+00   0.00000000000000E+00   0.00000000000000E+00  -5.94625926608119E-20
     -9.35822628903845E-16  -9.35882091496506E-16  -4.55914387503629E-15   0.00000000000000E+00   0.00000000000000E+00
      0.00000000000000E+00   0.00000000000000E+00  -1.96322826357348E-19  -2.80386733526072E-26  -1.96322854396021E-19
      1.63581688033834E-15   1.10366666666667E+00   1.10366666666667E+00   0.00000000000000E+00   0.00000000000000E+00
      9.36041673571670E-16   3.67407792343346E-20   9.36078414350904E-16   2.80328745578542E-15   0.00000000000000E+00
      0.00000000000000E+00   0.00000000000000E+00   0.00000000000000E+00   0.00000000000000E+00   0.00000000000000E+00
      0.00000000000000E+00   1.20039538912525E-16
      3.92888888888889E-01
      0.00000000000000E+00   0.00000000000000E+00   0.00000000000000E+00   0.00000000000000E+00  -5.95514956504864E-20
     -1.06197384222842E-15  -1.06203339372407E-15  -4.62567299374208E-15   0.00000000000000E+00   0.00000000000000E+00
      0.00000000000000E+00   0.00000000000000E+00  -1.96562763216368E-19  -9.21285368565847E-26  -1.96562855344905E-19
      1.63581688033892E-15   1.17866666666667E+00   1.17866666666667E+00   0.00000000000000E+00   0.00000000000000E+00
      1.06219352853418E-15   3.64280452280015E-20   1.06222995657941E-15   2.87614154864833E-15   0.00000000000000E+00
      0.00000000000000E+00   0.00000000000000E+00   0.00000000000000E+00   0.00000000000000E+00   0.00000000000000E+00
      0.00000000000000E+00   1.13714564754829E-16
      4.17888888888889E-01
      0.00000000000000E+00   0.00000000000000E+00   0.00000000000000E+00   0.00000000000000E+00  -5.98687658798703E-20
     -1.21134783869939E-15  -1.21140770746527E-15  -4.69134514152608E-15   0.00000000000000E+00   0.00000000000000E+00
      0.00000000000000E+00   0.00000000000000E+00  -1.96779134260697E-19   1.40038223514141E-25  -1.96778994222474E-19
      1.63581688033822E-15   1.25366666666667E+00   1.25366666666667E+00   0.00000000000000E+00   0.00000000000000E+00
      1.21156774181038E-15   3.67446491027264E-20   1.21160448645949E-15   2.94815246422733E-15   0.00000000000000E+00
      0.00000000000000E+00   0.00000000000000E+00   0.00000000000000E+00   0.00000000000000E+00   0.00000000000000E+00
      0.00000000000000E+00   1.07375796960527E-16
      4.42888888888889E-01
      0.00000000000000E+00   0.00000000000000E+00   0.00000000000000E+00   0.00000000000000E+00  -5.96967598274107E-20
     -1.36338190245171E-15  -1.36344159921154E-15  -4.75598586545991E-15   0.00000000000000E+00   0.00000000000000E+00
      0.00000000000000E+00   0.00000000000000E+00  -1.97386332605088E-19  -1.12751360898019E-25  -1.97386445356449E-19
      1.63581688033815E-15   1.32866666666667E+00   1.32866666666667E+00   0.00000000000000E+00   0.00000000000000E+00
      1.36360223516524E-15   3.67504916570109E-20   1.36363898565690E-15   3.01914503153253E-15   0.00000000000000E+00
      0.00000000000000E+00   0.00000000000000E+00   0.00000000000000E+00   0.00000000000000E+00   0.00000000000000E+00
      0.00000000000000E+00   1.01023953589230E-16
      4.67888888888889E-01
      0.00000000000000E+00   0.00000000000000E+00   0.00000000000000E+00   0.00000000000000E+00  -5.98937616400888E-20
     -1.48428455981915E-15  -1.48434445358079E-15  -4.81939558255538E-15   0.00000000000000E+00   0.00000000000000E+00
      0.00000000000000E+00   0.00000000000000E+00  -1.97626216057422E-19   1.99018849755498E-25  -1.97626017038572E-19
      1.63581688033809E-15   1.40366666666667E+00   1.40366666666667E+00   0.00000000000000E+00   0.00000000000000E+00
      1.48450532190123E-15   3.67576965959618E-20   1.48454207959783E-15   3.08891901029221E-15   0.00000000000000E+00
      0.00000000000000E+00   0.00000000000000E+00   0.00000000000000E+00   0.00000000000000E+00   0.00000000000000E+00
      0.00000000000000E+00   9.46596919250724E-17
      4.92888888888889E-01
      0.00000000000000E+00   0.00000000000000E+00   0.00000000000000E+00   0.00000000000000E+00  -6.01681375756622E-20
     -1.56354277180981E-15  -1.56360293994738E-15  -4.88140287437341E-15   0.00000000000000E+00   0.00000000000000E+00
      0.00000000000000E+00   0.00000000000000E+00  -1.97787184056130E-19  -3.01365103447807E-25  -1.97787485421234E-19
      1.63581688033806E-15   1.47866666666667E+00   1.47866666666667E+00   0.00000000000000E+00   0.00000000000000E+00
      1.56376396179240E-15   3.67656404054989E-20   1.56380072743280E-15   3.15730239837235E-15   0.00000000000000E+00
      0.00000000000000E+00   0.00000000000000E+00   0.00000000000000E+00   0.00000000000000E+00   0.00000000000000E+00
      0.00000000000000E+00   8.82835956629964E-17
      5.17888888888889E-01
      0.00000000000000E+00   0.00000000000000E+00   0.00000000000000E+00   0.00000000000000E+00  -5.99748873293771E-20
     -1.61464392956346E-15  -1.61470390445079E-15  -4.94194959338760E-15   0.00000000000000E+00   0.00000000000000E+00
      0.00000000000000E+00   0.00000000000000E+00  -1.98411439658316E-19  -2.47884023663912E-25  -1.98411687542340E-19
      1.63581688033803E-15   1.55366666666667E+00   1.55366666666667E+00   0.00000000000000E+00   0.00000000000000E+00
      1.61486554240449E-15   3.67737338411237E-20   1.61490231613834E-15   3.22423654433589E-15   0.00000000000000E+00
      0.00000000000000E+00   0.00000000000000E+00   0.00000000000000E+00   0.00000000000000E+00   0.00000000000000E+00
      0.00000000000000E+00   8.18961687136836E-17
      5.42888888888889E-01
      0.00000000000000E+00   0.00000000000000E+00   0.00000000000000E+00   0.00000000000000E+00  -6.00772848360397E-20
     -1.65210165576659E-15  -1.65216173305143E-15  -5.00115256505534E-15   0.00000000000000E+00   0.00000000000000E+00
      0.00000000000000E+00   0.00000000000000E+00  -1.98733791730122E-19  -1.16162825093065E-25  -1.98733907892947E-19
      1.63581688033801E-15   1.62866666666667E+00   1.62866666666667E+00   0.00000000000000E+00   0.00000000000000E+00
      1.65232368528646E-15   3.67816728542154E-20   1.65236046695932E-15   3.28983785123554E-15   0.00000000000000E+00
      0.00000000000000E+00   0.00000000000000E+00   0.00000000000000E+00   0.00000000000000E+00   0.00000000000000E+00
      0.00000000000000E+00   7.54978334817797E-17
      5.67888888888889E-01
      0.00000000000000E+00   0.00000000000000E+00   0.00000000000000E+00   0.00000000000000E+00  -6.02621081968495E-20
     -1.68230171352383E-15  -1.68236197563202E-15  -5.05926930495989E-15   0.00000000000000E+00   0.00000000000000E+00
      0.00000000000000E+00   0.00000000000000E+00  -1.98966129666982E-19   4.68479478436287E-25  -1.98965661187504E-19
      1.63581688033800E-15   1.70366666666667E+00   1.70366666666667E+00   0.00000000000000E+00   0.00000000000000E+00
      1.68252415197528E-15   3.67893179327277E-20   1.68256094129321E-15   3.35436349314586E-15   0.00000000000000E+00
      0.00000000000000E+00   0.00000000000000E+00   0.00000000000000E+00   0.00000000000000E+00   0.00000000000000E+00
      0.00000000000000E+00   6.90889314760425E-17
      5.92888888888889E-01
      0.00000000000000E+00   0.00000000000000E+00   0.00000000000000E+00   0.00000000000000E+00  -6.00416368602806E-20
     -1.70533417697661E-15  -1.70539421861347E-15  -5.11658768728836E-15   0.00000000000000E+00   0.00000000000000E+00
      0.00000000000000E+00   0.00000000000000E+00  -1.99595060081244E-19   5.13379091151839E-26  -1.99595008743335E-19
      1.63581688033799E-15   1.77866666666667E+00   1.77866666666667E+00   0.00000000000000E+00   0.00000000000000E+00
      1.70555701698011E-15   3.67966421075782E-20   1.70559381362221E-15   3.41810108251454E-15   0.00000000000000E+00
      0.00000000000000E+00   0.00000000000000E+00   0.00000000000000E+00   0.00000000000000E+00   0.00000000000000E+00
      0.00000000000000E+00   6.26697244358326E-17
      6.17888888888889E-01
      0.00000000000000E+00   0.00000000000000E+00   0.00000000000000E+00   0.00000000000000E+00  -6.02861209224662E-20
     -1.72098988636581E-15  -1.72105017248673E-15  -5.17333813593973E-15   0.00000000000000E+00   0.00000000000000E+00
      0.00000000000000E+00   0.00000000000000E+00  -1.99749358789211E-19  -4.55514204309988E-25  -1.99749814303415E-19
      1.63581688033798E-15   1.85366666666667E+00   1.85366666666667E+00   0.00000000000000E+00   0.00000000000000E+00
      1.72121311865686E-15   3.68036441709072E-20   1.72124992230103E-15   3.48128085907045E-15   0.00000000000000E+00
      0.00000000000000E+00   0.00000000000000E+00   0.00000000000000E+00   0.00000000000000E+00   0.00000000000000E+00
      0.00000000000000E+00   5.62403965313085E-17
      6.42888888888889E-01
      0.00000000000000E+00   0.00000000000000E+00   0.00000000000000E+00   0.00000000000000E+00  -6.03158768806518E-20
     -1.73117787137162E-15  -1.73123818724850E-15  -5.22967304677649E-15   0.00000000000000E+00   0.00000000000000E+00
      0.00000000000000E+00   0.00000000000000E+00  -2.00108047208716E-19   1.78652297715751E-26  -2.00108029343486E-19
      1.63581688033797E-15   1.92866666666667E+00   1.92866666666667E+00   0.00000000000000E+00   0.00000000000000E+00
      1.73140148494507E-15   3.68103327730409E-20   1.73143829527784E-15   3.54405510602641E-15   0.00000000000000E+00
      0.00000000000000E+00   0.00000000000000E+00   0.00000000000000E+00   0.00000000000000E+00   0.00000000000000E+00
      0.00000000000000E+00   4.98010604121174E-17
      6.67888888888889E-01
      0.00000000000000E+00   0.00000000000000E+00   0.00000000000000E+00   0.00000000000000E+00  -6.03648422446655E-20
     -1.73837187572646E-15  -1.73843224056870E-15  -5.28568507133277E-15   0.00000000000000E+00   0.00000000000000E+00
      0.00000000000000E+00   0.00000000000000E+00  -2.00370875290675E-19  -1.23163650041359E-25  -2.00370998454325E-19
      1.63581688033751E-15   2.00366666666667E+00   2.00366666666667E+00   0.00000000000000E+00   0.00000000000000E+00
      1.73859579843676E-15   3.68131303993520E-20   1.73863261156716E-15   3.60651642161677E-15   0.00000000000000E+00
      0.00000000000000E+00   0.00000000000000E+00   0.00000000000000E+00   0.00000000000000E+00   0.00000000000000E+00
      0.00000000000000E+00   4.33517693784990E-17
      6.92888888888889E-01
      0.00000000000000E+00   0.00000000000000E+00   0.00000000000000E+00   0.00000000000000E+00  -6.03562497852573E-20
     -1.74471031201856E-15  -1.74477066826835E-15  -5.34143004414643E-15   0.00000000000000E+00   0.00000000000000E+00
      0.00000000000000E+00   0.00000000000000E+00  -2.00805408202273E-19   3.09874141022687E-26  -2.00805377214859E-19
      1.63581688033771E-15   2.07866666666667E+00   2.07866666666667E+00   0.00000000000000E+00   0.00000000000000E+00
      1.74493466625132E-15   3.68073942384095E-20   1.74497147364556E-15   3.66872062822786E-15   0.00000000000000E+00
      0.00000000000000E+00   0.00000000000000E+00   0.00000000000000E+00   0.00000000000000E+00   0.00000000000000E+00
      0.00000000000000E+00   3.68925355808620E-17
      7.17888888888889E-01
      0.00000000000000E+00   0.00000000000000E+00   0.00000000000000E+00   0.00000000000000E+00  -6.04822132830663E-20
     -1.75203892275667E-15  -1.75209940496995E-15  -5.39694219241778E-15   0.00000000000000E+00   0.00000000000000E+00
      0.00000000000000E+00   0.00000000000000E+00  -2.01042330587028E-19   1.87204530348121E-26  -2.01042311866575E-19
      1.63581688033784E-15   2.15366666666667E+00   2.15366666666667E+00   0.00000000000000E+00   0.00000000000000E+00
      1.75226369586394E-15   3.67514178746083E-20   1.75230044728182E-15   3.73070196053431E-15   0.00000000000000E+00
      0.00000000000000E+00   0.00000000000000E+00   0.00000000000000E+00   0.00000000000000E+00   0.00000000000000E+00
      0.00000000000000E+00   3.04233515456223E-17
      7.42888888888889E-01
      0.00000000000000E+00   0.00000000000000E+00   0.00000000000000E+00   0.00000000000000E+00  -6.03916553646271E-20
     -1.76177608765325E-15  -1.76183647930861E-15  -5.45224229637140E-15   0.00000000000000E+00   0.00000000000000E+00
      0.00000000000000E+00   0.00000000000000E+00  -2.01480958156844E-19   6.12887861501653E-25  -2.01480345268982E-19
      1.63581688033789E-15   2.22866666666667E+00   2.22866666666667E+00   0.00000000000000E+00   0.00000000000000E+00
      1.76200118240502E-15   3.67772488583551E-20   1.76203795965388E-15   3.79248120544679E-15   0.00000000000000E+00
      0.00000000000000E+00   0.00000000000000E+00   0.00000000000000E+00   0.00000000000000E+00   0.00000000000000E+00
      0.00000000000000E+00   2.39442105867193E-17
      7.67888888888889E-01
      0.00000000000000E+00   0.00000000000000E+00   0.00000000000000E+00   0.00000000000000E+00  -6.04714732459008E-20
     -1.77420882285644E-15  -1.77426929432968E-15  -5.50734202985349E-15   0.00000000000000E+00   0.00000000000000E+00
      0.00000000000000E+00   0.00000000000000E+00  -2.01741059808520E-19   1.36740615781326E-25  -2.01740923067905E-19
      1.63581688033787E-15   2.30366666666667E+00   2.30366666666667E+00   0.00000000000000E+00   0.00000000000000E+00
      1.77443423158218E-15   3.68036705690029E-20   1.77447103525275E-15   3.85407002720781E-15   0.00000000000000E+00
      0.00000000000000E+00   0.00000000000000E+00   0.00000000000000E+00   0.00000000000000E+00   0.00000000000000E+00
      0.00000000000000E+00   1.74551223078175E-17
      7.92888888888889E-01
      0.00000000000000E+00   0.00000000000000E+00   0.00000000000000E+00   0.00000000000000E+00  -6.06092772363867E-20
     -1.78807696030908E-15  -1.78813756958632E-15  -5.56224673576950E-15   0.00000000000000E+00   0.00000000000000E+00
      0.00000000000000E+00   0.00000000000000E+00  -2.01937517148156E-19  -1.98953633643821E-25  -2.01937716101790E-19
      1.63581688033782E-15   2.37866666666667E+00   2.37866666666667E+00   0.00000000000000E+00   0.00000000000000E+00
      1.78830269989462E-15   3.68074078012776E-20   1.78833950730242E-15   3.91547373284612E-15   0.00000000000000E+00
      0.00000000000000E+00   0.00000000000000E+00   0.00000000000000E+00   0.00000000000000E+00   0.00000000000000E+00
      0.00000000000000E+00   1.09561225855628E-17
      8.17888888888889E-01
      0.00000000000000E+00   0.00000000000000E+00   0.00000000000000E+00   0.00000000000000E+00  -6.05995727909775E-20
     -1.80166616704705E-15  -1.80172676661984E-15  -5.61695776401471E-15   0.00000000000000E+00   0.00000000000000E+00
      0.00000000000000E+00   0.00000000000000E+00  -2.02277686086584E-19   1.88948464730184E-25  -2.02277497138119E-19
      1.63581688033778E-15   2.45366666666667E+00   2.45366666666667E+00   0.00000000000000E+00   0.00000000000000E+00
      1.80189220290702E-15   3.68412099564490E-20   1.80192904411698E-15   3.97669360350205E-15   0.00000000000000E+00
      0.00000000000000E+00   0.00000000000000E+00   0.00000000000000E+00   0.00000000000000E+00   0.00000000000000E+00
      0.00000000000000E+00   4.44728017488408E-18
      8.42888888888889E-01
      0.00000000000000E+00   0.00000000000000E+00   0.00000000000000E+00   0.00000000000000E+00  -6.08490990093965E-20
     -1.81522873161293E-15  -1.81528958071194E-15  -5.67147462363792E-15   0.00000000000000E+00   0.00000000000000E+00
      0.00000000000000E+00   0.00000000000000E+00  -2.02356553892801E-19   2.63565534952671E-25  -2.02356290327266E-19
      1.63581688033778E-15   2.52866666666667E+00   2.52866666666667E+00   0.00000000000000E+00   0.00000000000000E+00
      1.81545508253189E-15   3.68544703799054E-20   1.81549193700227E-15   4.03772904148925E-15   0.00000000000000E+00
      0.00000000000000E+00   0.00000000000000E+00   0.00000000000000E+00   0.00000000000000E+00   0.00000000000000E+00
      0.00000000000000E+00  -2.07129818911154E-18
      8.67888888888889E-01
      0.00000000000000E+00   0.00000000000000E+00   0.00000000000000E+00   0.00000000000000E+00  -6.06793011126655E-20