DF-ISE text

Info {
  version   = 1.0
  type      = xyplot
  datasets  = [
    "time"
    "substrate OuterVoltage" "substrate InnerVoltage" "substrate QuasiFermiPotential" "substrate DisplacementCurrent" "substrate eCurrent"
    "substrate hCurrent" "substrate TotalCurrent" "substrate Charge" "source OuterVoltage" "source InnerVoltage"
    "source QuasiFermiPotential" "source DisplacementCurrent" "source eCurrent" "source hCurrent" "source TotalCurrent"
    "source Charge" "drain OuterVoltage" "drain InnerVoltage" "drain QuasiFermiPotential" "drain DisplacementCurrent"
    "drain eCurrent" "drain hCurrent" "drain TotalCurrent" "drain Charge" "gate OuterVoltage"
    "gate InnerVoltage" "gate QuasiFermiPotential" "gate DisplacementCurrent" "gate eCurrent" "gate hCurrent"
    "gate TotalCurrent" "gate Charge" ]
  functions = [
    Time
    OuterVoltage InnerVoltage QuasiFermiPotential DisplacementCurrent eCurrent
    hCurrent TotalCurrent Charge OuterVoltage InnerVoltage
    QuasiFermiPotential DisplacementCurrent eCurrent hCurrent TotalCurrent
    Charge OuterVoltage InnerVoltage QuasiFermiPotential DisplacementCurrent
    eCurrent hCurrent TotalCurrent Charge OuterVoltage
    InnerVoltage QuasiFermiPotential DisplacementCurrent eCurrent hCurrent
    TotalCurrent Charge ]
}

Data {
      0.00000000000000E+00
      0.00000000000000E+00   0.00000000000000E+00   0.00000000000000E+00   0.00000000000000E+00  -7.25647136907611E-35
     -4.14845347192711E-17  -4.14845347192711E-17   3.32634294694053E-17   0.00000000000000E+00   0.00000000000000E+00
      0.00000000000000E+00   0.00000000000000E+00  -5.10747471634006E-35  -5.57208196008174E-18  -5.57208196008174E-18
     -8.78699345739473E-16   0.00000000000000E+00   0.00000000000000E+00   0.00000000000000E+00   0.00000000000000E+00
      2.69339129854659E-35   4.70566166793528E-17   4.70566166793528E-17  -7.56021862723308E-16   1.00000000000000E+00
      1.00000000000000E+00   0.00000000000000E+00   0.00000000000000E+00   0.00000000000000E+00   0.00000000000000E+00
      0.00000000000000E+00   1.60145777899338E-15
      1.00000000000000E-02
      0.00000000000000E+00   0.00000000000000E+00   0.00000000000000E+00   0.00000000000000E+00  -2.51325406023554E-20
     -3.80523292947367E-05  -3.80523292947367E-05   3.32726270898394E-17   0.00000000000000E+00   0.00000000000000E+00
      0.00000000000000E+00   0.00000000000000E+00  -4.20575389665861E-21  -4.44843511708694E-04  -4.44843511708694E-04
     -8.71321126789335E-16   3.00000000000000E-02   3.00000000000000E-02   0.00000000000000E+00   0.00000000000000E+00
      4.66076982194710E-21   4.82895841003431E-04   4.82895841003431E-04  -7.48483399391584E-16   1.00000000000000E+00
      1.00000000000000E+00   0.00000000000000E+00   0.00000000000000E+00   0.00000000000000E+00   0.00000000000000E+00
      0.00000000000000E+00   1.58653189909108E-15
      2.36666666666667E-02
      0.00000000000000E+00   0.00000000000000E+00   0.00000000000000E+00   0.00000000000000E+00  -8.15025505536895E-20
     -8.99792798487965E-05  -8.99792798487966E-05   3.32852525603784E-17   0.00000000000000E+00   0.00000000000000E+00
      0.00000000000000E+00   0.00000000000000E+00  -1.00651878735866E-20  -1.05263519842916E-03  -1.05263519842916E-03
     -8.61242543321641E-16   7.10000000000000E-02   7.10000000000000E-02   0.00000000000000E+00   0.00000000000000E+00
      1.11538613975960E-20   1.14261447827796E-03   1.14261447827796E-03  -7.38185461777913E-16   1.00000000000000E+00
      1.00000000000000E+00   0.00000000000000E+00   0.00000000000000E+00   0.00000000000000E+00   0.00000000000000E+00
      0.00000000000000E+00   1.56614275253917E-15
      4.37111111111111E-02
      0.00000000000000E+00   0.00000000000000E+00   0.00000000000000E+00   0.00000000000000E+00  -2.29131705770604E-19
     -1.65946867799970E-04  -1.65946867799970E-04   3.33038993029465E-17   0.00000000000000E+00   0.00000000000000E+00
      0.00000000000000E+00   0.00000000000000E+00  -1.88770956148209E-20  -1.94366266718567E-03  -1.94366266718567E-03
     -8.46470882473034E-16   1.31133333333333E-01   1.31133333333333E-01   0.00000000000000E+00   0.00000000000000E+00
      2.16637650406076E-20   2.10960953498564E-03   2.10960953498564E-03  -7.23091431381178E-16   1.00000000000000E+00
      1.00000000000000E+00   0.00000000000000E+00   0.00000000000000E+00   0.00000000000000E+00   0.00000000000000E+00
      0.00000000000000E+00   1.53625841455127E-15
      6.87111111111111E-02
      0.00000000000000E+00   0.00000000000000E+00   0.00000000000000E+00   0.00000000000000E+00  -5.12204775199192E-19
     -2.60340324434512E-04  -2.60340324434512E-04   3.33273881460478E-17   0.00000000000000E+00   0.00000000000000E+00
      0.00000000000000E+00   0.00000000000000E+00  -3.01776036854834E-20  -3.05422955820894E-03  -3.05422955820894E-03
     -8.28064115426211E-16   2.06133333333333E-01   2.06133333333333E-01   0.00000000000000E+00   0.00000000000000E+00
      3.86534266342137E-20   3.31456988264345E-03   3.31456988264345E-03  -7.04281631584010E-16   1.00000000000000E+00
      1.00000000000000E+00   0.00000000000000E+00   0.00000000000000E+00   0.00000000000000E+00   0.00000000000000E+00
      0.00000000000000E+00   1.49901835886417E-15
      9.37111111111111E-02
      0.00000000000000E+00   0.00000000000000E+00   0.00000000000000E+00   0.00000000000000E+00  -8.13549064841955E-19
     -3.54308454510923E-04  -3.54308454510924E-04   3.33511486307451E-17   0.00000000000000E+00   0.00000000000000E+00
      0.00000000000000E+00   0.00000000000000E+00  -4.16898558915607E-20  -4.16389323514558E-03  -4.16389323514558E-03
     -8.09675779344444E-16   2.81133333333333E-01   2.81133333333333E-01   0.00000000000000E+00   0.00000000000000E+00
      6.17552315656284E-20   4.51820168965650E-03   4.51820168965650E-03  -6.85489311772613E-16   1.00000000000000E+00
      1.00000000000000E+00   0.00000000000000E+00   0.00000000000000E+00   0.00000000000000E+00   0.00000000000000E+00
      0.00000000000000E+00   1.46181394248631E-15
      1.18711111111111E-01
      0.00000000000000E+00   0.00000000000000E+00   0.00000000000000E+00   0.00000000000000E+00  -1.07808981549711E-18
     -4.47828020042005E-04  -4.47828020042006E-04   3.33751911589669E-17   0.00000000000000E+00   0.00000000000000E+00
      0.00000000000000E+00   0.00000000000000E+00  -5.32857367488847E-20  -5.27259514425375E-03  -5.27259514425375E-03
     -7.91305544776100E-16   3.56133333333333E-01   3.56133333333333E-01   0.00000000000000E+00   0.00000000000000E+00
      9.13944623594202E-20   5.72042316429576E-03   5.72042316429576E-03  -6.66714251188310E-16   1.00000000000000E+00
      1.00000000000000E+00   0.00000000000000E+00   0.00000000000000E+00   0.00000000000000E+00   0.00000000000000E+00
      0.00000000000000E+00   1.42464460480544E-15
      1.43711111111111E-01
      0.00000000000000E+00   0.00000000000000E+00   0.00000000000000E+00   0.00000000000000E+00  -1.31514109582212E-18
     -5.40881682489136E-04  -5.40881682489137E-04   3.33995233371515E-17   0.00000000000000E+00   0.00000000000000E+00
      0.00000000000000E+00   0.00000000000000E+00  -6.49051915280935E-20  -6.38028867597216E-03  -6.38028867597216E-03
     -7.72953054274673E-16   4.31133333333333E-01   4.31133333333333E-01   0.00000000000000E+00   0.00000000000000E+00
      1.28183312697816E-19   6.92117035846129E-03   6.92117035846129E-03  -6.47956191411391E-16   1.00000000000000E+00
      1.00000000000000E+00   0.00000000000000E+00   0.00000000000000E+00   0.00000000000000E+00   0.00000000000000E+00
      0.00000000000000E+00   1.38750972234891E-15
      1.68711111111111E-01
      0.00000000000000E+00   0.00000000000000E+00   0.00000000000000E+00   0.00000000000000E+00  -1.53960770370415E-18
     -6.33455985135045E-04  -6.33455985135047E-04   3.34241509385855E-17   0.00000000000000E+00   0.00000000000000E+00
      0.00000000000000E+00   0.00000000000000E+00  -7.65222213930318E-20  -7.48693509090995E-03  -7.48693509090995E-03
     -7.54617918947580E-16   5.06133333333333E-01   5.06133333333333E-01   0.00000000000000E+00   0.00000000000000E+00
      1.72869059583338E-19   8.12039107604499E-03   8.12039107604499E-03  -6.29214837770677E-16   1.00000000000000E+00
      1.00000000000000E+00   0.00000000000000E+00   0.00000000000000E+00   0.00000000000000E+00   0.00000000000000E+00
      0.00000000000000E+00   1.35040860577967E-15
      1.93711111111111E-01
      0.00000000000000E+00   0.00000000000000E+00   0.00000000000000E+00   0.00000000000000E+00  -1.75817575099806E-18
     -7.25540272122279E-04  -7.25540272122281E-04   3.34490784242245E-17   0.00000000000000E+00   0.00000000000000E+00
      0.00000000000000E+00   0.00000000000000E+00  -8.81229643424601E-20  -8.59250139099599E-03  -8.59250139099599E-03
     -7.36299717727459E-16   5.81133333333333E-01   5.81133333333333E-01   0.00000000000000E+00   0.00000000000000E+00
      2.25886447799383E-19   9.31804166311827E-03   9.31804166311827E-03  -6.10489860815520E-16   1.00000000000000E+00
      1.00000000000000E+00   0.00000000000000E+00   0.00000000000000E+00   0.00000000000000E+00   0.00000000000000E+00
      0.00000000000000E+00   1.31334050011876E-15
      2.18711111111111E-01
      0.00000000000000E+00   0.00000000000000E+00   0.00000000000000E+00   0.00000000000000E+00  -1.97305178849020E-18
     -8.17126028655113E-04  -8.17126028655115E-04   3.34743092667634E-17   0.00000000000000E+00   0.00000000000000E+00
      0.00000000000000E+00   0.00000000000000E+00  -9.97001044276924E-20  -9.69695900553566E-03  -9.69695900553566E-03
     -7.17997997678352E-16   6.56133333333333E-01   6.56133333333333E-01   0.00000000000000E+00   0.00000000000000E+00
      2.87305732055471E-19   1.05140850341908E-02   1.05140850341908E-02  -5.91780898157903E-16   1.00000000000000E+00
      1.00000000000000E+00   0.00000000000000E+00   0.00000000000000E+00   0.00000000000000E+00   0.00000000000000E+00
      0.00000000000000E+00   1.27630458656949E-15
      2.43711111111111E-01
      0.00000000000000E+00   0.00000000000000E+00   0.00000000000000E+00   0.00000000000000E+00  -2.18488727253034E-18
     -9.08206439621121E-04  -9.08206439621123E-04   3.34998461514495E-17   0.00000000000000E+00   0.00000000000000E+00
      0.00000000000000E+00   0.00000000000000E+00  -1.11250646055152E-19  -1.08002829342205E-02  -1.08002829342205E-02
     -6.99712275666184E-16   7.31133333333333E-01   7.31133333333333E-01   0.00000000000000E+00   0.00000000000000E+00
      3.56925073291130E-19   1.17084893738416E-02   1.17084893738416E-02  -5.73087556682105E-16   1.00000000000000E+00
      1.00000000000000E+00   0.00000000000000E+00   0.00000000000000E+00   0.00000000000000E+00   0.00000000000000E+00
      0.00000000000000E+00   1.23929998619684E-15
      2.68711111111111E-01
      0.00000000000000E+00   0.00000000000000E+00   0.00000000000000E+00   0.00000000000000E+00  -2.39387917825772E-18
     -9.98776073743545E-04  -9.98776073743547E-04   3.35256911221356E-17   0.00000000000000E+00   0.00000000000000E+00
      0.00000000000000E+00   0.00000000000000E+00  -1.22774223185732E-19  -1.19024511245182E-02  -1.19024511245182E-02
     -6.81442041085310E-16   8.06133333333333E-01   8.06133333333333E-01   0.00000000000000E+00   0.00000000000000E+00
      4.34363753919232E-19   1.29012271982617E-02   1.29012271982617E-02  -5.54409415406062E-16   1.00000000000000E+00
      1.00000000000000E+00   0.00000000000000E+00   0.00000000000000E+00   0.00000000000000E+00   0.00000000000000E+00
      0.00000000000000E+00   1.20232576536924E-15
      2.93711111111111E-01
      0.00000000000000E+00   0.00000000000000E+00   0.00000000000000E+00   0.00000000000000E+00  -2.60010304018243E-18
     -1.08883064513301E-03  -1.08883064513302E-03   3.35518457074480E-17   0.00000000000000E+00   0.00000000000000E+00
      0.00000000000000E+00   0.00000000000000E+00  -1.34271849373301E-19  -1.30034439609093E-02  -1.30034439609093E-02
     -6.63186759645893E-16   8.81133333333333E-01   8.81133333333333E-01   0.00000000000000E+00   0.00000000000000E+00
      5.19131215981894E-19   1.40922746060423E-02   1.40922746060423E-02  -5.35746029792621E-16   1.00000000000000E+00
      1.00000000000000E+00   0.00000000000000E+00   0.00000000000000E+00   0.00000000000000E+00   0.00000000000000E+00
      0.00000000000000E+00   1.16538094373107E-15
      3.18711111111111E-01
      0.00000000000000E+00   0.00000000000000E+00   0.00000000000000E+00   0.00000000000000E+00  -2.80360397160407E-18
     -1.17836682679708E-03  -1.17836682679708E-03   3.35783110018531E-17   0.00000000000000E+00   0.00000000000000E+00
      0.00000000000000E+00   0.00000000000000E+00  -1.45745123357597E-19  -1.41032438754475E-02  -1.41032438754475E-02
     -6.44945877351139E-16   9.56133333333333E-01   9.56133333333333E-01   0.00000000000000E+00   0.00000000000000E+00
      6.10676076294311E-19   1.52816107022446E-02   1.52816107022446E-02  -5.17096935843995E-16   1.00000000000000E+00
      1.00000000000000E+00   0.00000000000000E+00   0.00000000000000E+00   0.00000000000000E+00   0.00000000000000E+00
      0.00000000000000E+00   1.12846450219328E-15
      3.43711111111111E-01
      0.00000000000000E+00   0.00000000000000E+00   0.00000000000000E+00   0.00000000000000E+00  -3.00442022151834E-18
     -1.26738209986165E-03  -1.26738209986165E-03   3.36050877425537E-17   0.00000000000000E+00   0.00000000000000E+00
      0.00000000000000E+00   0.00000000000000E+00  -1.57195785870995E-19  -1.52018350603112E-02  -1.52018350603112E-02
     -6.26718826008945E-16   1.03113333333333E+00   1.03113333333333E+00   0.00000000000000E+00   0.00000000000000E+00
      7.08420985098568E-19   1.64692171601728E-02   1.64692171601728E-02  -4.98461654853372E-16   1.00000000000000E+00
      1.00000000000000E+00   0.00000000000000E+00   0.00000000000000E+00   0.00000000000000E+00   0.00000000000000E+00
      0.00000000000000E+00   1.09157539311976E-15
      3.68711111111111E-01
      0.00000000000000E+00   0.00000000000000E+00   0.00000000000000E+00   0.00000000000000E+00  -3.20258902154614E-18
     -1.35587463006120E-03  -1.35587463006120E-03   3.36321763517646E-17   0.00000000000000E+00   0.00000000000000E+00
      0.00000000000000E+00   0.00000000000000E+00  -1.68625500373986E-19  -1.62992031890907E-02  -1.62992031890907E-02
     -6.08505027117158E-16   1.10613333333333E+00   1.10613333333333E+00   0.00000000000000E+00   0.00000000000000E+00
      8.11787170648470E-19   1.76550778191519E-02   1.76550778191519E-02  -4.79839697184617E-16   1.00000000000000E+00
      1.00000000000000E+00   0.00000000000000E+00   0.00000000000000E+00   0.00000000000000E+00   0.00000000000000E+00
      0.00000000000000E+00   1.05471254795001E-15
      3.93711111111111E-01
      0.00000000000000E+00   0.00000000000000E+00   0.00000000000000E+00   0.00000000000000E+00  -3.39814789589040E-18
     -1.44384316443481E-03  -1.44384316443481E-03   3.36595769826076E-17   0.00000000000000E+00   0.00000000000000E+00
      0.00000000000000E+00   0.00000000000000E+00  -1.80035761137159E-19  -1.73953351780809E-02  -1.73953351780809E-02
     -5.90303896455382E-16   1.18113333333333E+00   1.18113333333333E+00   0.00000000000000E+00   0.00000000000000E+00
      9.20211211894572E-19   1.88391783425157E-02   1.88391783425157E-02  -4.61230566684317E-16   1.00000000000000E+00
      1.00000000000000E+00   0.00000000000000E+00   0.00000000000000E+00   0.00000000000000E+00   0.00000000000000E+00
      0.00000000000000E+00   1.01787488615709E-15
      4.18711111111111E-01
      0.00000000000000E+00   0.00000000000000E+00   0.00000000000000E+00   0.00000000000000E+00  -3.59113482215890E-18
     -1.53128694386440E-03  -1.53128694386441E-03   3.36872895701974E-17   0.00000000000000E+00   0.00000000000000E+00
      0.00000000000000E+00   0.00000000000000E+00  -1.91427867358455E-19  -1.84902189801297E-02  -1.84902189801297E-02
     -5.72114848801749E-16   1.25613333333333E+00   1.25613333333333E+00   0.00000000000000E+00   0.00000000000000E+00
      1.03315592838082E-18   2.00215059239941E-02   2.00215059239941E-02  -4.42633765367194E-16   1.00000000000000E+00
      1.00000000000000E+00   0.00000000000000E+00   0.00000000000000E+00   0.00000000000000E+00   0.00000000000000E+00
      0.00000000000000E+00   9.81061324598745E-16
      4.43711111111111E-01
      0.00000000000000E+00   0.00000000000000E+00   0.00000000000000E+00   0.00000000000000E+00  -3.78158811600925E-18
     -1.61820562902836E-03  -1.61820562902837E-03   3.37153138575716E-17   0.00000000000000E+00   0.00000000000000E+00
      0.00000000000000E+00   0.00000000000000E+00  -2.02802928675313E-19  -1.95838434181051E-02  -1.95838434181051E-02
     -5.53937301982338E-16   1.33113333333333E+00   1.33113333333333E+00   0.00000000000000E+00   0.00000000000000E+00
      1.15011688505792E-18   2.12020490471334E-02   2.12020490471334E-02  -4.24048797014005E-16   1.00000000000000E+00
      1.00000000000000E+00   0.00000000000000E+00   0.00000000000000E+00   0.00000000000000E+00   0.00000000000000E+00
      0.00000000000000E+00   9.44270785138771E-16
      4.68711111111111E-01
      0.00000000000000E+00   0.00000000000000E+00   0.00000000000000E+00   0.00000000000000E+00  -3.96954626608667E-18
     -1.70459923724944E-03  -1.70459923724945E-03   3.37436494243644E-17   0.00000000000000E+00   0.00000000000000E+00
      0.00000000000000E+00   0.00000000000000E+00  -2.14161883704774E-19  -2.06761980518001E-02  -2.06761980518001E-02
     -5.35770680892560E-16   1.40613333333333E+00   1.40613333333333E+00   0.00000000000000E+00   0.00000000000000E+00
      1.27062571066106E-18   2.23807972890495E-02   2.23807972890495E-02  -4.05475170824814E-16   1.00000000000000E+00
      1.00000000000000E+00   0.00000000000000E+00   0.00000000000000E+00   0.00000000000000E+00   0.00000000000000E+00
      0.00000000000000E+00   9.07502202293010E-16
      4.93711111111111E-01
      0.00000000000000E+00   0.00000000000000E+00   0.00000000000000E+00   0.00000000000000E+00  -4.15504777774806E-18
     -1.79046808851518E-03  -1.79046808851518E-03   3.37722957209496E-17   0.00000000000000E+00   0.00000000000000E+00
      0.00000000000000E+00   0.00000000000000E+00  -2.25505521860301E-19  -2.17672730134542E-02  -2.17672730134542E-02
     -5.17614420713450E-16   1.48113333333333E+00   1.48113333333333E+00   0.00000000000000E+00   0.00000000000000E+00
      1.39425116962887E-18   2.35577411019693E-02   2.35577411019693E-02  -3.86912404955371E-16   1.00000000000000E+00
      1.00000000000000E+00   0.00000000000000E+00   0.00000000000000E+00   0.00000000000000E+00   0.00000000000000E+00
      0.00000000000000E+00   8.70754529947871E-16
      5.18711111111111E-01
      0.00000000000000E+00   0.00000000000000E+00   0.00000000000000E+00   0.00000000000000E+00  -4.33813104054182E-18
     -1.87581276017188E-03  -1.87581276017189E-03   3.38012520609954E-17   0.00000000000000E+00   0.00000000000000E+00
      0.00000000000000E+00   0.00000000000000E+00  -2.36834505657811E-19  -2.28570589460470E-02  -2.28570589460470E-02
     -4.99467969611499E-16   1.55613333333333E+00   1.55613333333333E+00   0.00000000000000E+00   0.00000000000000E+00
      1.52059871395817E-18   2.47328717062189E-02   2.47328717062189E-02  -3.68360028093941E-16   1.00000000000000E+00
      1.00000000000000E+00   0.00000000000000E+00   0.00000000000000E+00   0.00000000000000E+00   0.00000000000000E+00
      0.00000000000000E+00   8.34026745644444E-16
      5.43711111111111E-01
      0.00000000000000E+00   0.00000000000000E+00   0.00000000000000E+00   0.00000000000000E+00  -4.51883421729295E-18
     -1.96063404786122E-03  -1.96063404786123E-03   3.38305176439971E-17   0.00000000000000E+00   0.00000000000000E+00
      0.00000000000000E+00   0.00000000000000E+00  -2.48149390278720E-19  -2.39455468978173E-02  -2.39455468978173E-02
     -4.81330791188239E-16   1.63113333333333E+00   1.63113333333333E+00   0.00000000000000E+00   0.00000000000000E+00
      1.64930905418162E-18   2.59061809456785E-02   2.59061809456785E-02  -3.49817582062430E-16   1.00000000000000E+00
      1.00000000000000E+00   0.00000000000000E+00   0.00000000000000E+00   0.00000000000000E+00   0.00000000000000E+00
      0.00000000000000E+00   7.97317855606672E-16
      5.68711111111111E-01
      0.00000000000000E+00   0.00000000000000E+00   0.00000000000000E+00   0.00000000000000E+00  -4.69719515383788E-18
     -2.04493293239897E-03  -2.04493293239898E-03   3.38600915811693E-17   0.00000000000000E+00   0.00000000000000E+00
      0.00000000000000E+00   0.00000000000000E+00  -2.59450640322199E-19  -2.50327282144735E-02  -2.50327282144735E-02
     -4.63202366496984E-16   1.70613333333333E+00   1.70613333333333E+00   0.00000000000000E+00   0.00000000000000E+00
      1.78005613304678E-18   2.70776611468725E-02   2.70776611468725E-02  -3.31284624245260E-16   1.00000000000000E+00
      1.00000000000000E+00   0.00000000000000E+00   0.00000000000000E+00   0.00000000000000E+00   0.00000000000000E+00
      0.00000000000000E+00   7.60626899161075E-16
      5.93711111111111E-01
      0.00000000000000E+00   0.00000000000000E+00   0.00000000000000E+00   0.00000000000000E+00  -4.87325130657494E-18
     -2.12871055181652E-03  -2.12871055181653E-03   3.38899729058369E-17   0.00000000000000E+00   0.00000000000000E+00
      0.00000000000000E+00   0.00000000000000E+00  -2.70738644541169E-19  -2.61185945007904E-02  -2.61185945007904E-02
     -4.45082196124170E-16   1.78113333333333E+00   1.78113333333333E+00   0.00000000000000E+00   0.00000000000000E+00
      1.91254478945490E-18   2.82473050526070E-02   2.82473050526070E-02  -3.12760728996847E-16   1.00000000000000E+00
      1.00000000000000E+00   0.00000000000000E+00   0.00000000000000E+00   0.00000000000000E+00   0.00000000000000E+00
      0.00000000000000E+00   7.23952952215180E-16
      6.18711111111111E-01
      0.00000000000000E+00   0.00000000000000E+00   0.00000000000000E+00   0.00000000000000E+00  -5.04703968414114E-18
     -2.21196817740356E-03  -2.21196817740356E-03   3.39201606072860E-17   0.00000000000000E+00   0.00000000000000E+00
      0.00000000000000E+00   0.00000000000000E+00  -2.82013728254417E-19  -2.72031375955336E-02  -2.72031375955336E-02
     -4.26969802296230E-16   1.85613333333333E+00   1.85613333333333E+00   0.00000000000000E+00   0.00000000000000E+00
      2.04650830037358E-18   2.94151057729372E-02   2.94151057729372E-02  -2.94245490041302E-16   1.00000000000000E+00
      1.00000000000000E+00   0.00000000000000E+00   0.00000000000000E+00   0.00000000000000E+00   0.00000000000000E+00
      0.00000000000000E+00   6.87295131730245E-16
      6.43711111111111E-01
      0.00000000000000E+00   0.00000000000000E+00   0.00000000000000E+00   0.00000000000000E+00  -5.21859680626699E-18
     -2.29470719575165E-03  -2.29470719575165E-03   3.39506535791585E-17   0.00000000000000E+00   0.00000000000000E+00
      0.00000000000000E+00   0.00000000000000E+00  -2.93276163444566E-19  -2.82863495278823E-02  -2.82863495278823E-02
     -4.08864727671062E-16   1.93113333333333E+00   1.93113333333333E+00   0.00000000000000E+00   0.00000000000000E+00
      2.18170592606635E-18   3.05810567236340E-02   3.05810567236340E-02  -2.75738518816642E-16   1.00000000000000E+00
      1.00000000000000E+00   0.00000000000000E+00   0.00000000000000E+00   0.00000000000000E+00   0.00000000000000E+00
      0.00000000000000E+00   6.50652592908544E-16
      6.68711111111111E-01
      0.00000000000000E+00   0.00000000000000E+00   0.00000000000000E+00   0.00000000000000E+00  -5.38795866807732E-18
     -2.37692909164791E-03  -2.37692909164792E-03   3.39814506700376E-17   0.00000000000000E+00   0.00000000000000E+00
      0.00000000000000E+00   0.00000000000000E+00  -3.04526176964535E-19  -2.93682224635563E-02  -2.93682224635563E-02
     -3.90766537219717E-16   2.00613333333333E+00   2.00613333333333E+00   0.00000000000000E+00   0.00000000000000E+00
      2.31792054127069E-18   3.17451515552042E-02   3.17451515552042E-02  -2.57239446678195E-16   1.00000000000000E+00
      1.00000000000000E+00   0.00000000000000E+00   0.00000000000000E+00   0.00000000000000E+00   0.00000000000000E+00
      0.00000000000000E+00   6.14024533227874E-16
      6.93711111111111E-01
      0.00000000000000E+00   0.00000000000000E+00   0.00000000000000E+00   0.00000000000000E+00  -5.55516071628787E-18
     -2.45863543523893E-03  -2.45863543523894E-03   3.40125506758748E-17   0.00000000000000E+00   0.00000000000000E+00
      0.00000000000000E+00   0.00000000000000E+00  -3.15763957800841E-19  -3.04487487029065E-02  -3.04487487029065E-02
     -3.72674818108833E-16   2.08113333333333E+00   2.08113333333333E+00   0.00000000000000E+00   0.00000000000000E+00
      2.45495640298740E-18   3.29073841381454E-02   3.29073841381454E-02  -2.38747924696856E-16   1.00000000000000E+00
      1.00000000000000E+00   0.00000000000000E+00   0.00000000000000E+00   0.00000000000000E+00   0.00000000000000E+00
      0.00000000000000E+00   5.77410192129814E-16
      7.18711111111111E-01
      0.00000000000000E+00   0.00000000000000E+00   0.00000000000000E+00   0.00000000000000E+00  -5.72023783161004E-18
     -2.53982787105977E-03  -2.53982787105978E-03   3.40439523489780E-17   0.00000000000000E+00   0.00000000000000E+00
      0.00000000000000E+00   0.00000000000000E+00  -3.26989662798338E-19  -3.15279206488290E-02  -3.15279206488290E-02
     -3.54589179635116E-16   2.15613333333333E+00   2.15613333333333E+00   0.00000000000000E+00   0.00000000000000E+00
      2.59263707708827E-18   3.40677485198888E-02   3.40677485198888E-02  -2.20263623766079E-16   1.00000000000000E+00
      1.00000000000000E+00   0.00000000000000E+00   0.00000000000000E+00   0.00000000000000E+00   0.00000000000000E+00
      0.00000000000000E+00   5.40808851052216E-16
      7.43711111111111E-01
      0.00000000000000E+00   0.00000000000000E+00   0.00000000000000E+00   0.00000000000000E+00  -5.88322431651269E-18
     -2.62050810873838E-03  -2.62050810873839E-03   3.40756544436935E-17   0.00000000000000E+00   0.00000000000000E+00
      0.00000000000000E+00   0.00000000000000E+00  -3.38203421580898E-19  -3.26057307943461E-02  -3.26057307943461E-02
     -3.36509254143182E-16   2.23113333333333E+00   2.23113333333333E+00   0.00000000000000E+00   0.00000000000000E+00
      2.73080353657134E-18   3.52262389030845E-02   3.52262389030845E-02  -2.01786235071336E-16   1.00000000000000E+00
      1.00000000000000E+00   0.00000000000000E+00   0.00000000000000E+00   0.00000000000000E+00   0.00000000000000E+00
      0.00000000000000E+00   5.04219834770825E-16
      7.68711111111111E-01
      0.00000000000000E+00   0.00000000000000E+00   0.00000000000000E+00   0.00000000000000E+00  -6.04415389078355E-18
     -2.70067791679970E-03  -2.70067791679970E-03   3.41076556619642E-17   0.00000000000000E+00   0.00000000000000E+00
      0.00000000000000E+00   0.00000000000000E+00  -3.49405341002758E-19  -3.36821717448323E-02  -3.36821717448323E-02
     -3.18434695109547E-16   2.30613333333333E+00   2.30613333333333E+00   0.00000000000000E+00   0.00000000000000E+00
      2.86931243251641E-18   3.63828496616320E-02   3.63828496616320E-02  -1.83315469365919E-16   1.00000000000000E+00
      1.00000000000000E+00   0.00000000000000E+00   0.00000000000000E+00   0.00000000000000E+00   0.00000000000000E+00
      0.00000000000000E+00   4.67642508813503E-16
      7.93711111111111E-01
      0.00000000000000E+00   0.00000000000000E+00   0.00000000000000E+00   0.00000000000000E+00  -6.20305968657256E-18
     -2.78033911564563E-03  -2.78033911564563E-03   3.41399547317670E-17   0.00000000000000E+00   0.00000000000000E+00
      0.00000000000000E+00   0.00000000000000E+00  -3.60595508008508E-19  -3.47572361531109E-02  -3.47572361531109E-02
     -3.00365178199128E-16   2.38113333333333E+00   2.38113333333333E+00   0.00000000000000E+00   0.00000000000000E+00
      3.00803452547570E-18   3.75375752687565E-02   3.75375752687565E-02  -1.64851057387199E-16   1.00000000000000E+00
      1.00000000000000E+00   0.00000000000000E+00   0.00000000000000E+00   0.00000000000000E+00   0.00000000000000E+00
      0.00000000000000E+00   4.31076280854561E-16
      8.18711111111112E-01
      0.00000000000000E+00   0.00000000000000E+00   0.00000000000000E+00   0.00000000000000E+00  -6.35997425379402E-18
     -2.85949357523569E-03  -2.85949357523569E-03   3.41725503265934E-17   0.00000000000000E+00   0.00000000000000E+00
      0.00000000000000E+00   0.00000000000000E+00  -3.71773993659313E-19  -3.58309168209798E-02  -3.58309168209798E-02
     -2.82300398533072E-16   2.45613333333333E+00   2.45613333333334E+00   0.00000000000000E+00   0.00000000000000E+00
      3.14685328380619E-18   3.86904103962155E-02   3.86904103962155E-02  -1.46392749317342E-16   1.00000000000000E+00
      1.00000000000000E+00   0.00000000000000E+00   0.00000000000000E+00   0.00000000000000E+00   0.00000000000000E+00
      0.00000000000000E+00   3.94520597523822E-16
      8.43711111111112E-01
      0.00000000000000E+00   0.00000000000000E+00   0.00000000000000E+00   0.00000000000000E+00  -6.51492955856746E-18
     -2.93814320898271E-03  -2.93814320898271E-03   3.42054412751601E-17   0.00000000000000E+00   0.00000000000000E+00
      0.00000000000000E+00   0.00000000000000E+00  -3.82940853553279E-19  -3.69032064993643E-02  -3.69032064993643E-02
     -2.64240073796056E-16   2.53113333333333E+00   2.53113333333333E+00   0.00000000000000E+00   0.00000000000000E+00
      3.28566360675015E-18   3.98413497083470E-02   3.98413497083470E-02  -1.27940313622877E-16   1.00000000000000E+00
      1.00000000000000E+00   0.00000000000000E+00   0.00000000000000E+00   0.00000000000000E+00   0.00000000000000E+00
      0.00000000000000E+00   3.57974946143771E-16
      8.68711111111112E-01
      0.00000000000000E+00   0.00000000000000E+00   0.00000000000000E+00   0.00000000000000E+00  -6.66795697325553E-18