DF-ISE text

Info {
  version   = 1.0
  type      = xyplot
  datasets  = [
    "time"
    "substrate OuterVoltage" "substrate InnerVoltage" "substrate QuasiFermiPotential" "substrate DisplacementCurrent" "substrate eCurrent"
    "substrate hCurrent" "substrate TotalCurrent" "substrate Charge" "source OuterVoltage" "source InnerVoltage"
    "source QuasiFermiPotential" "source DisplacementCurrent" "source eCurrent" "source hCurrent" "source TotalCurrent"
    "source Charge" "drain OuterVoltage" "drain InnerVoltage" "drain QuasiFermiPotential" "drain DisplacementCurrent"
    "drain eCurrent" "drain hCurrent" "drain TotalCurrent" "drain Charge" "gate OuterVoltage"
    "gate InnerVoltage" "gate QuasiFermiPotential" "gate DisplacementCurrent" "gate eCurrent" "gate hCurrent"
    "gate TotalCurrent" "gate Charge" ]
  functions = [
    Time
    OuterVoltage InnerVoltage QuasiFermiPotential DisplacementCurrent eCurrent
    hCurrent TotalCurrent Charge OuterVoltage InnerVoltage
    QuasiFermiPotential DisplacementCurrent eCurrent hCurrent TotalCurrent
    Charge OuterVoltage InnerVoltage QuasiFermiPotential DisplacementCurrent
    eCurrent hCurrent TotalCurrent Charge OuterVoltage
    InnerVoltage QuasiFermiPotential DisplacementCurrent eCurrent hCurrent
    TotalCurrent Charge ]
}

Data {
      0.00000000000000E+00
      0.00000000000000E+00   0.00000000000000E+00   0.00000000000000E+00   0.00000000000000E+00   1.51999665797182E-22
      3.00206236002445E-25   1.52299872033184E-22  -3.48450311291776E-15   0.00000000000000E+00   0.00000000000000E+00
      0.00000000000000E+00   0.00000000000000E+00  -8.88084418373194E-23  -1.33999779824009E-25  -8.89424416171435E-23
      1.63581696678041E-15   0.00000000000000E+00   0.00000000000000E+00   0.00000000000000E+00   0.00000000000000E+00
     -6.31912240117872E-23  -1.66206404252924E-25  -6.33574304160401E-23   1.63581696678041E-15   0.00000000000000E+00
      0.00000000000000E+00   0.00000000000000E+00   0.00000000000000E+00   0.00000000000000E+00   0.00000000000000E+00
      0.00000000000000E+00   2.12869179356942E-16
      1.00000000000000E-02
      0.00000000000000E+00   0.00000000000000E+00   0.00000000000000E+00   0.00000000000000E+00   4.54146580938425E-19
     -2.52301372291558E-17  -2.47759906482174E-17  -3.51928893251839E-15   0.00000000000000E+00   0.00000000000000E+00
      0.00000000000000E+00   0.00000000000000E+00  -1.38857361045834E-19  -1.36315474999979E-25  -1.38857497361309E-19
      1.63581696678039E-15   3.00000000000000E-02   3.00000000000000E-02   0.00000000000000E+00   0.00000000000000E+00
      2.48918503502506E-17   2.29977953281044E-20   2.49148481455787E-17   1.67322272849359E-15   0.00000000000000E+00
      0.00000000000000E+00   0.00000000000000E+00   0.00000000000000E+00   0.00000000000000E+00   0.00000000000000E+00
      0.00000000000000E+00   2.10249237244406E-16
      2.33333333333333E-02
      0.00000000000000E+00   0.00000000000000E+00   0.00000000000000E+00   0.00000000000000E+00   2.14353976221070E-17
     -5.43943742348132E-17  -3.29589766127062E-17  -3.56478884095570E-15   0.00000000000000E+00   0.00000000000000E+00
      0.00000000000000E+00   0.00000000000000E+00  -1.84230950012399E-19  -3.87903696152986E-26  -1.84230988802769E-19
      1.63581696678043E-15   7.00000000000000E-02   7.00000000000000E-02   0.00000000000000E+00   0.00000000000000E+00
      3.31422634985204E-17   9.44102988622493E-22   3.31432076015090E-17   1.72220337588544E-15   0.00000000000000E+00
      0.00000000000000E+00   0.00000000000000E+00   0.00000000000000E+00   0.00000000000000E+00   0.00000000000000E+00
      0.00000000000000E+00   2.06768498289825E-16
      4.28888888888889E-02
      0.00000000000000E+00   0.00000000000000E+00   0.00000000000000E+00   0.00000000000000E+00  -5.83974591849903E-20
     -1.06025698655401E-16  -1.06084096114586E-16  -3.62968297233881E-15   0.00000000000000E+00   0.00000000000000E+00
      0.00000000000000E+00   0.00000000000000E+00  -1.91544553827593E-19   3.82788908395930E-26  -1.91544515548702E-19
      1.63581696678035E-15   1.28666666666667E-01   1.28666666666667E-01   0.00000000000000E+00   0.00000000000000E+00
      1.06233972693620E-16   4.16679365144885E-20   1.06275640630134E-16   1.79217438744502E-15   0.00000000000000E+00
      0.00000000000000E+00   0.00000000000000E+00   0.00000000000000E+00   0.00000000000000E+00   0.00000000000000E+00
      0.00000000000000E+00   2.01691618113433E-16
      6.78888888888889E-02
      0.00000000000000E+00   0.00000000000000E+00   0.00000000000000E+00   0.00000000000000E+00  -5.87335833962815E-20
     -2.15881236513827E-16  -2.15939970097223E-16  -3.70952405715175E-15   0.00000000000000E+00   0.00000000000000E+00
      0.00000000000000E+00   0.00000000000000E+00  -1.91376377271347E-19   4.36438706509338E-27  -1.91376372906960E-19
      1.63581696678030E-15   2.03666666666667E-01   2.03666666666667E-01   0.00000000000000E+00   0.00000000000000E+00
      2.16093756297612E-16   3.75901725180816E-20   2.16131346470130E-16   1.87845117773960E-15   0.00000000000000E+00
      0.00000000000000E+00   0.00000000000000E+00   0.00000000000000E+00   0.00000000000000E+00   0.00000000000000E+00
      0.00000000000000E+00   1.95255912631840E-16
      9.28888888888889E-02
      0.00000000000000E+00   0.00000000000000E+00   0.00000000000000E+00   0.00000000000000E+00  -5.76092823126123E-20
     -3.49448324766479E-16  -3.49505934048792E-16  -3.78627078021126E-15   0.00000000000000E+00   0.00000000000000E+00
      0.00000000000000E+00   0.00000000000000E+00  -1.91876432921661E-19   2.26084298440320E-25  -1.91876206837363E-19
      1.63581696678024E-15   2.78666666666667E-01   2.78666666666667E-01   0.00000000000000E+00   0.00000000000000E+00
      3.49676977625686E-16   2.08326299434506E-20   3.49697810255629E-16   1.96156692640210E-15   0.00000000000000E+00
      0.00000000000000E+00   0.00000000000000E+00   0.00000000000000E+00   0.00000000000000E+00   0.00000000000000E+00
      0.00000000000000E+00   1.88886887028923E-16
      1.17888888888889E-01
      0.00000000000000E+00   0.00000000000000E+00   0.00000000000000E+00   0.00000000000000E+00  -5.91372430028671E-20
     -4.37128565179326E-16  -4.37187702422329E-16  -3.86068040550374E-15   0.00000000000000E+00   0.00000000000000E+00
      0.00000000000000E+00   0.00000000000000E+00  -1.92535468878831E-19   7.68321627733205E-26  -1.92535392046668E-19
      1.63581696678020E-15   3.53666666666667E-01   3.53666666666667E-01   0.00000000000000E+00   0.00000000000000E+00
      4.37342657787642E-16   3.75800267335394E-20   4.37380237814376E-16   2.04228119933138E-15   0.00000000000000E+00
      0.00000000000000E+00   0.00000000000000E+00   0.00000000000000E+00   0.00000000000000E+00   0.00000000000000E+00
      0.00000000000000E+00   1.82582239392171E-16
      1.42888888888889E-01
      0.00000000000000E+00   0.00000000000000E+00   0.00000000000000E+00   0.00000000000000E+00  -5.86181555981938E-20
     -4.86203609388984E-16  -4.86262227544582E-16  -3.93351980529698E-15   0.00000000000000E+00   0.00000000000000E+00
      0.00000000000000E+00   0.00000000000000E+00  -1.92760645982970E-19   5.90613870746921E-26  -1.92760586921582E-19
      1.63581696678017E-15   4.28666666666667E-01   4.28666666666667E-01   0.00000000000000E+00   0.00000000000000E+00
      4.86418594098353E-16   3.63940331493474E-20   4.86454988131503E-16   2.12137496695925E-15   0.00000000000000E+00
      0.00000000000000E+00   0.00000000000000E+00   0.00000000000000E+00   0.00000000000000E+00   0.00000000000000E+00
      0.00000000000000E+00   1.76327871557561E-16
      1.67888888888889E-01
      0.00000000000000E+00   0.00000000000000E+00   0.00000000000000E+00   0.00000000000000E+00  -5.89267210661482E-20
     -5.25995391609642E-16  -5.26054318330708E-16  -4.00533193226881E-15   0.00000000000000E+00   0.00000000000000E+00
      0.00000000000000E+00   0.00000000000000E+00  -1.93093706066418E-19  -3.20267517091220E-25  -1.93094026333935E-19
      1.63581696678015E-15   5.03666666666667E-01   5.03666666666667E-01   0.00000000000000E+00   0.00000000000000E+00
      5.26210563737465E-16   3.68486195770939E-20   5.26247412357042E-16   2.19941253385392E-15   0.00000000000000E+00
      0.00000000000000E+00   0.00000000000000E+00   0.00000000000000E+00   0.00000000000000E+00   0.00000000000000E+00
      0.00000000000000E+00   1.70102431634734E-16
      1.92888888888889E-01
      0.00000000000000E+00   0.00000000000000E+00   0.00000000000000E+00   0.00000000000000E+00  -5.87707013509184E-20
     -5.59868273205913E-16  -5.59927043907264E-16  -4.07642686750089E-15   0.00000000000000E+00   0.00000000000000E+00
      0.00000000000000E+00   0.00000000000000E+00  -1.93772885633352E-19   1.49681848321453E-25  -1.93772735951504E-19
      1.63581696678014E-15   5.78666666666667E-01   5.78666666666667E-01   0.00000000000000E+00   0.00000000000000E+00
      5.60083980470722E-16   3.68361724930464E-20   5.60120816643215E-16   2.27672372184180E-15   0.00000000000000E+00
      0.00000000000000E+00   0.00000000000000E+00   0.00000000000000E+00   0.00000000000000E+00   0.00000000000000E+00
      0.00000000000000E+00   1.63886178878962E-16
      2.17888888888889E-01
      0.00000000000000E+00   0.00000000000000E+00   0.00000000000000E+00   0.00000000000000E+00  -5.91595135359646E-20
     -5.88482743707742E-16  -5.88541903221278E-16  -4.14695640516037E-15   0.00000000000000E+00   0.00000000000000E+00
      0.00000000000000E+00   0.00000000000000E+00  -1.94063395975113E-19  -2.41060728798562E-25  -1.94063637035841E-19
      1.63581696678012E-15   6.53666666666667E-01   6.53666666666667E-01   0.00000000000000E+00   0.00000000000000E+00
      5.88699150043055E-16   3.68168152586060E-20   5.88735966858313E-16   2.35347365844234E-15   0.00000000000000E+00
      0.00000000000000E+00   0.00000000000000E+00   0.00000000000000E+00   0.00000000000000E+00   0.00000000000000E+00
      0.00000000000000E+00   1.57665779937909E-16
      2.42888888888889E-01
      0.00000000000000E+00   0.00000000000000E+00   0.00000000000000E+00   0.00000000000000E+00  -6.44074556166357E-20
     -6.16422698113066E-16  -6.16487105568683E-16  -4.21698006241574E-15   0.00000000000000E+00   0.00000000000000E+00
      0.00000000000000E+00   0.00000000000000E+00  -1.94319920499299E-19   1.22585126468040E-25  -1.94319797914173E-19
      1.63581696678011E-15   7.28666666666667E-01   7.28666666666666E-01   0.00000000000000E+00   0.00000000000000E+00
      6.16644650488597E-16   3.67748779998392E-20   6.16681425366597E-16   2.42972917568637E-15   0.00000000000000E+00
      0.00000000000000E+00   0.00000000000000E+00   0.00000000000000E+00   0.00000000000000E+00   0.00000000000000E+00
      0.00000000000000E+00   1.51433919949259E-16
      2.67888888888889E-01
      0.00000000000000E+00   0.00000000000000E+00   0.00000000000000E+00   0.00000000000000E+00  -9.34256462923656E-20
     -6.48217528162907E-16  -6.48310953809199E-16  -4.28650732738122E-15   0.00000000000000E+00   0.00000000000000E+00
      0.00000000000000E+00   0.00000000000000E+00  -1.94859776288639E-19   1.06267642305051E-25  -1.94859670020997E-19
      1.63581696678009E-15   8.03666666666667E-01   8.03666666666667E-01   0.00000000000000E+00   0.00000000000000E+00
      6.48468832940476E-16   3.69805387447880E-20   6.48505813479221E-16   2.50550317723488E-15   0.00000000000000E+00
      0.00000000000000E+00   0.00000000000000E+00   0.00000000000000E+00   0.00000000000000E+00   0.00000000000000E+00
      0.00000000000000E+00   1.45187183366243E-16
      2.92888888888889E-01
      0.00000000000000E+00   0.00000000000000E+00   0.00000000000000E+00   0.00000000000000E+00  -5.77718632247317E-20
     -6.91063222449214E-16  -6.91120994312438E-16  -4.35552213985281E-15   0.00000000000000E+00   0.00000000000000E+00
      0.00000000000000E+00   0.00000000000000E+00  -1.95092918202526E-19  -3.36230032777807E-25  -1.95093254432559E-19
      1.63581696678007E-15   8.78666666666667E-01   8.78666666666667E-01   0.00000000000000E+00   0.00000000000000E+00
      6.91279436934153E-16   3.66506327181946E-20   6.91316087566872E-16   2.58078087347878E-15   0.00000000000000E+00
      0.00000000000000E+00   0.00000000000000E+00   0.00000000000000E+00   0.00000000000000E+00   0.00000000000000E+00
      0.00000000000000E+00   1.38924299593948E-16
      3.17888888888889E-01
      0.00000000000000E+00   0.00000000000000E+00   0.00000000000000E+00   0.00000000000000E+00  -5.92860272588063E-20
     -7.51380719237074E-16  -7.51440005264333E-16  -4.42399565844183E-15   0.00000000000000E+00   0.00000000000000E+00
      0.00000000000000E+00   0.00000000000000E+00  -1.95566455975733E-19   1.70294293506629E-25  -1.95566285681439E-19
      1.63581696678004E-15   9.53666666666667E-01   9.53666666666667E-01   0.00000000000000E+00   0.00000000000000E+00
      7.51599220145762E-16   3.63514042517360E-20   7.51635571550014E-16   2.65553359205067E-15   0.00000000000000E+00
      0.00000000000000E+00   0.00000000000000E+00   0.00000000000000E+00   0.00000000000000E+00   0.00000000000000E+00
      0.00000000000000E+00   1.32645099611117E-16
      3.42888888888889E-01
      0.00000000000000E+00   0.00000000000000E+00   0.00000000000000E+00   0.00000000000000E+00  -5.91174147757430E-20
     -8.32789247296230E-16  -8.32848364711006E-16  -4.49188870703770E-15   0.00000000000000E+00   0.00000000000000E+00
      0.00000000000000E+00   0.00000000000000E+00  -1.96207354990567E-19  -1.38806378637280E-25  -1.96207493796946E-19
      1.63581696678001E-15   1.02866666666667E+00   1.02866666666667E+00   0.00000000000000E+00   0.00000000000000E+00
      8.33007828047194E-16   3.67441576070264E-20   8.33044572204801E-16   2.72972177512099E-15   0.00000000000000E+00
      0.00000000000000E+00   0.00000000000000E+00   0.00000000000000E+00   0.00000000000000E+00   0.00000000000000E+00
      0.00000000000000E+00   1.26349965136702E-16
      3.67888888888889E-01
      0.00000000000000E+00   0.00000000000000E+00   0.00000000000000E+00   0.00000000000000E+00  -5.93428602623110E-20
     -9.35822436267392E-16  -9.35881779127654E-16  -4.55914404533884E-15   0.00000000000000E+00   0.00000000000000E+00
      0.00000000000000E+00   0.00000000000000E+00  -1.96442558339990E-19   1.27938681323703E-25  -1.96442430401309E-19
      1.63581696677996E-15   1.10366666666667E+00   1.10366666666667E+00   0.00000000000000E+00   0.00000000000000E+00
      9.36041480778742E-16   3.67407793148776E-20   9.36078221558057E-16   2.80328753948607E-15   0.00000000000000E+00
      0.00000000000000E+00   0.00000000000000E+00   0.00000000000000E+00   0.00000000000000E+00   0.00000000000000E+00
      0.00000000000000E+00   1.20039539072821E-16
      3.92888888888889E-01
      0.00000000000000E+00   0.00000000000000E+00   0.00000000000000E+00   0.00000000000000E+00  -5.95040812698009E-20
     -1.06197367089031E-15  -1.06203317497158E-15  -4.62567316413796E-15   0.00000000000000E+00   0.00000000000000E+00
      0.00000000000000E+00   0.00000000000000E+00  -1.96610175806458E-19  -4.46275047298423E-26  -1.96610220433963E-19
      1.63581696678053E-15   1.17866666666667E+00   1.17866666666667E+00   0.00000000000000E+00   0.00000000000000E+00
      1.06219335714671E-15   3.64280453016726E-20   1.06222978519202E-15   2.87614163244296E-15   0.00000000000000E+00
      0.00000000000000E+00   0.00000000000000E+00   0.00000000000000E+00   0.00000000000000E+00   0.00000000000000E+00
      0.00000000000000E+00   1.13714564914471E-16
      4.17888888888889E-01
      0.00000000000000E+00   0.00000000000000E+00   0.00000000000000E+00   0.00000000000000E+00  -5.94726882280327E-20
     -1.21134771310715E-15  -1.21140718579538E-15  -4.69134531201253E-15   0.00000000000000E+00   0.00000000000000E+00
      0.00000000000000E+00   0.00000000000000E+00  -1.97175210706558E-19  -6.81143843665245E-26  -1.97175278820942E-19
      1.63581696677983E-15   1.25366666666667E+00   1.25366666666667E+00   0.00000000000000E+00   0.00000000000000E+00
      1.21156761642505E-15   3.67446491558874E-20   1.21160436107420E-15   2.94815254811422E-15   0.00000000000000E+00
      0.00000000000000E+00   0.00000000000000E+00   0.00000000000000E+00   0.00000000000000E+00   0.00000000000000E+00
      0.00000000000000E+00   1.07375797118471E-16
      4.42888888888889E-01
      0.00000000000000E+00   0.00000000000000E+00   0.00000000000000E+00   0.00000000000000E+00  -5.97168862065628E-20
     -1.36338182668731E-15  -1.36344154357351E-15  -4.75598603603803E-15   0.00000000000000E+00   0.00000000000000E+00
      0.00000000000000E+00   0.00000000000000E+00  -1.97366205041926E-19   2.44089859303470E-25  -1.97365960952066E-19
      1.63581696677976E-15   1.32866666666667E+00   1.32866666666667E+00   0.00000000000000E+00   0.00000000000000E+00
      1.36360215904277E-15   3.67504917010588E-20   1.36363890953447E-15   3.01914511551395E-15   0.00000000000000E+00
      0.00000000000000E+00   0.00000000000000E+00   0.00000000000000E+00   0.00000000000000E+00   0.00000000000000E+00
      0.00000000000000E+00   1.01023953744313E-16
      4.67888888888889E-01
      0.00000000000000E+00   0.00000000000000E+00   0.00000000000000E+00   0.00000000000000E+00  -5.96945713418186E-20
     -1.48428452943957E-15  -1.48434422401091E-15  -4.81939575323256E-15   0.00000000000000E+00   0.00000000000000E+00
      0.00000000000000E+00   0.00000000000000E+00  -1.97825405401068E-19  -1.51043676940071E-25  -1.97825556444745E-19
      1.63581696677971E-15   1.40366666666667E+00   1.40366666666667E+00   0.00000000000000E+00   0.00000000000000E+00
      1.48450529187072E-15   3.67576966338824E-20   1.48454204956735E-15   3.08891909437683E-15   0.00000000000000E+00
      0.00000000000000E+00   0.00000000000000E+00   0.00000000000000E+00   0.00000000000000E+00   0.00000000000000E+00
      0.00000000000000E+00   9.46596920760221E-17
      4.92888888888889E-01
      0.00000000000000E+00   0.00000000000000E+00   0.00000000000000E+00   0.00000000000000E+00  -5.97157893063951E-20
     -1.56354278901160E-15  -1.56360250480090E-15  -4.88140304516635E-15   0.00000000000000E+00   0.00000000000000E+00
      0.00000000000000E+00   0.00000000000000E+00  -1.98239531327825E-19   2.63421349682830E-26  -1.98239504985690E-19
      1.63581696677967E-15   1.47866666666667E+00   1.47866666666667E+00   0.00000000000000E+00   0.00000000000000E+00
      1.56376397866545E-15   3.67656404402722E-20   1.56380074430589E-15   3.15730248257825E-15   0.00000000000000E+00
      0.00000000000000E+00   0.00000000000000E+00   0.00000000000000E+00   0.00000000000000E+00   0.00000000000000E+00
      0.00000000000000E+00   8.82835958084288E-17
      5.17888888888889E-01
      0.00000000000000E+00   0.00000000000000E+00   0.00000000000000E+00   0.00000000000000E+00  -5.99581417592079E-20
     -1.61464399110706E-15  -1.61470394924882E-15  -4.94194976432238E-15   0.00000000000000E+00   0.00000000000000E+00
      0.00000000000000E+00   0.00000000000000E+00  -1.98428184282665E-19   1.39322230680122E-25  -1.98428044960434E-19
      1.63581696677965E-15   1.55366666666667E+00   1.55366666666667E+00   0.00000000000000E+00   0.00000000000000E+00
      1.61486560355991E-15   3.67737338742406E-20   1.61490237729378E-15   3.22423662869060E-15   0.00000000000000E+00
      0.00000000000000E+00   0.00000000000000E+00   0.00000000000000E+00   0.00000000000000E+00   0.00000000000000E+00
      0.00000000000000E+00   8.18961688521432E-17
      5.42888888888889E-01
      0.00000000000000E+00   0.00000000000000E+00   0.00000000000000E+00   0.00000000000000E+00  -6.00080088309373E-20
     -1.65210175379927E-15  -1.65216176180811E-15  -5.00115273616179E-15   0.00000000000000E+00   0.00000000000000E+00
      0.00000000000000E+00   0.00000000000000E+00  -1.98803066769768E-19   4.30802822909474E-25  -1.98802635966945E-19
      1.63581696677963E-15   1.62866666666667E+00   1.62866666666667E+00   0.00000000000000E+00   0.00000000000000E+00
      1.65232378277118E-15   3.67816728875108E-20   1.65236056444407E-15   3.28983793577037E-15   0.00000000000000E+00
      0.00000000000000E+00   0.00000000000000E+00   0.00000000000000E+00   0.00000000000000E+00   0.00000000000000E+00
      0.00000000000000E+00   7.54978336117886E-17
      5.67888888888889E-01
      0.00000000000000E+00   0.00000000000000E+00   0.00000000000000E+00   0.00000000000000E+00  -5.98262651304970E-20
     -1.68230183780348E-15  -1.68236166406861E-15  -5.05926947626499E-15   0.00000000000000E+00   0.00000000000000E+00
      0.00000000000000E+00   0.00000000000000E+00  -1.99401971793033E-19   1.52061676933750E-25  -1.99401819731356E-19
      1.63581696677961E-15   1.70366666666667E+00   1.70366666666667E+00   0.00000000000000E+00   0.00000000000000E+00
      1.68252427657038E-15   3.67893179665379E-20   1.68256106588834E-15   3.35436357788920E-15   0.00000000000000E+00
      0.00000000000000E+00   0.00000000000000E+00   0.00000000000000E+00   0.00000000000000E+00   0.00000000000000E+00
      0.00000000000000E+00   6.90889315961840E-17
      5.92888888888889E-01
      0.00000000000000E+00   0.00000000000000E+00   0.00000000000000E+00   0.00000000000000E+00  -6.02660536614726E-20
     -1.70533432078545E-15  -1.70539458683911E-15  -5.11658785881363E-15   0.00000000000000E+00   0.00000000000000E+00
      0.00000000000000E+00   0.00000000000000E+00  -1.99370642338735E-19  -1.24763437714541E-25  -1.99370767102173E-19
      1.63581696677960E-15   1.77866666666667E+00   1.77866666666667E+00   0.00000000000000E+00   0.00000000000000E+00
      1.70555716096407E-15   3.67966421425724E-20   1.70559395760621E-15   3.41810116748917E-15   0.00000000000000E+00
      0.00000000000000E+00   0.00000000000000E+00   0.00000000000000E+00   0.00000000000000E+00   0.00000000000000E+00
      0.00000000000000E+00   6.26697245448617E-17
      6.17888888888889E-01
      0.00000000000000E+00   0.00000000000000E+00   0.00000000000000E+00   0.00000000000000E+00  -6.01551210655941E-20
     -1.72099004440509E-15  -1.72105019952616E-15  -5.17333830770103E-15   0.00000000000000E+00   0.00000000000000E+00
      0.00000000000000E+00   0.00000000000000E+00  -1.99880357705394E-19  -5.60600331198108E-26  -1.99880413765428E-19
      1.63581696677959E-15   1.85366666666667E+00   1.85366666666667E+00   0.00000000000000E+00   0.00000000000000E+00
      1.72121327629571E-15   3.68036442071771E-20   1.72125007993992E-15   3.48128094429314E-15   0.00000000000000E+00
      0.00000000000000E+00   0.00000000000000E+00   0.00000000000000E+00   0.00000000000000E+00   0.00000000000000E+00
      0.00000000000000E+00   5.62403966283024E-17
      6.42888888888889E-01
      0.00000000000000E+00   0.00000000000000E+00   0.00000000000000E+00   0.00000000000000E+00  -6.01708354919693E-20
     -1.73117803824134E-15  -1.73123820907683E-15  -5.22967321878387E-15   0.00000000000000E+00   0.00000000000000E+00
      0.00000000000000E+00   0.00000000000000E+00  -2.00253087660069E-19  -1.51361116551236E-25  -2.00253239021186E-19
      1.63581696677959E-15   1.92866666666667E+00   1.92866666666667E+00   0.00000000000000E+00   0.00000000000000E+00
      1.73140165198304E-15   3.68103328107361E-20   1.73143846231585E-15   3.54405519150767E-15   0.00000000000000E+00
      0.00000000000000E+00   0.00000000000000E+00   0.00000000000000E+00   0.00000000000000E+00   0.00000000000000E+00
      0.00000000000000E+00   4.98010604966117E-17
      6.67888888888889E-01
      0.00000000000000E+00   0.00000000000000E+00   0.00000000000000E+00   0.00000000000000E+00  -6.02733073447239E-20
     -1.73837204889757E-15  -1.73843232220492E-15  -5.28568524359071E-15   0.00000000000000E+00   0.00000000000000E+00
      0.00000000000000E+00   0.00000000000000E+00  -2.00462409161893E-19  -1.69990085472040E-25  -2.00462579151979E-19
      1.63581696677912E-15   2.00366666666667E+00   2.00366666666667E+00   0.00000000000000E+00   0.00000000000000E+00
      1.73859597165363E-15   3.68131304367075E-20   1.73863278478407E-15   3.60651650736103E-15   0.00000000000000E+00
      0.00000000000000E+00   0.00000000000000E+00   0.00000000000000E+00   0.00000000000000E+00   0.00000000000000E+00
      0.00000000000000E+00   4.33517694505695E-17
      6.92888888888889E-01
      0.00000000000000E+00   0.00000000000000E+00   0.00000000000000E+00   0.00000000000000E+00  -6.02920287307187E-20
     -1.74471048849960E-15  -1.74477078052833E-15  -5.34143021665504E-15   0.00000000000000E+00   0.00000000000000E+00
      0.00000000000000E+00   0.00000000000000E+00  -2.00869628307215E-19  -4.54427531822659E-25  -2.00870082734747E-19
      1.63581696677933E-15   2.07866666666667E+00   2.07866666666667E+00   0.00000000000000E+00   0.00000000000000E+00
      1.74493484321682E-15   3.68073942506115E-20   1.74497165061107E-15   3.66872071423459E-15   0.00000000000000E+00
      0.00000000000000E+00   0.00000000000000E+00   0.00000000000000E+00   0.00000000000000E+00   0.00000000000000E+00
      0.00000000000000E+00   3.68925356411294E-17
      7.17888888888889E-01
      0.00000000000000E+00   0.00000000000000E+00   0.00000000000000E+00   0.00000000000000E+00  -6.05504540202852E-20
     -1.75203910162705E-15  -1.75209965208107E-15  -5.39694236517480E-15   0.00000000000000E+00   0.00000000000000E+00
      0.00000000000000E+00   0.00000000000000E+00  -2.00974088918205E-19  -5.98052960236130E-26  -2.00974148723501E-19
      1.63581696677946E-15   2.15366666666667E+00   2.15366666666667E+00   0.00000000000000E+00   0.00000000000000E+00
      1.75226387481190E-15   3.67514178909445E-20   1.75230062622980E-15   3.73070204680020E-15   0.00000000000000E+00
      0.00000000000000E+00   0.00000000000000E+00   0.00000000000000E+00   0.00000000000000E+00   0.00000000000000E+00
      0.00000000000000E+00   3.04233515951411E-17
      7.42888888888889E-01
      0.00000000000000E+00   0.00000000000000E+00   0.00000000000000E+00   0.00000000000000E+00  -6.05474825670084E-20
     -1.76177626685796E-15  -1.76183681434053E-15  -5.45224246937442E-15   0.00000000000000E+00   0.00000000000000E+00
      0.00000000000000E+00   0.00000000000000E+00  -2.01325130027203E-19  -6.89886869960568E-26  -2.01325199015890E-19
      1.63581696677950E-15   2.22866666666667E+00   2.22866666666667E+00   0.00000000000000E+00   0.00000000000000E+00
      1.76200136229062E-15   3.67772489235774E-20   1.76203813953955E-15   3.79248129196813E-15   0.00000000000000E+00
      0.00000000000000E+00   0.00000000000000E+00   0.00000000000000E+00   0.00000000000000E+00   0.00000000000000E+00
      0.00000000000000E+00   2.39442106267889E-17
      7.67888888888889E-01
      0.00000000000000E+00   0.00000000000000E+00   0.00000000000000E+00   0.00000000000000E+00  -6.04104183626881E-20
     -1.77420900331308E-15  -1.77426941373144E-15  -5.50734220310173E-15   0.00000000000000E+00   0.00000000000000E+00
      0.00000000000000E+00   0.00000000000000E+00  -2.01802113765637E-19  -1.69073844024208E-26  -2.01802130673021E-19
      1.63581696677948E-15   2.30366666666667E+00   2.30366666666667E+00   0.00000000000000E+00   0.00000000000000E+00
      1.77443441219150E-15   3.68036706169365E-20   1.77447121586211E-15   3.85407011398248E-15   0.00000000000000E+00
      0.00000000000000E+00   0.00000000000000E+00   0.00000000000000E+00   0.00000000000000E+00   0.00000000000000E+00
      0.00000000000000E+00   1.74551223397794E-17
      7.92888888888889E-01
      0.00000000000000E+00   0.00000000000000E+00   0.00000000000000E+00   0.00000000000000E+00  -6.04407558486154E-20
     -1.78807714210715E-15  -1.78813758286299E-15  -5.56224690926469E-15   0.00000000000000E+00   0.00000000000000E+00
      0.00000000000000E+00   0.00000000000000E+00  -2.02106037609505E-19  -1.30802823975127E-25  -2.02106168412329E-19
      1.63581696677943E-15   2.37866666666667E+00   2.37866666666667E+00   0.00000000000000E+00   0.00000000000000E+00
      1.78830288162356E-15   3.68074078467107E-20   1.78833968903141E-15   3.91547381987465E-15   0.00000000000000E+00
      0.00000000000000E+00   0.00000000000000E+00   0.00000000000000E+00   0.00000000000000E+00   0.00000000000000E+00
      0.00000000000000E+00   1.09561226106179E-17
      8.17888888888889E-01
      0.00000000000000E+00   0.00000000000000E+00   0.00000000000000E+00   0.00000000000000E+00  -6.04486103561762E-20
     -1.80166635011892E-15  -1.80172679872927E-15  -5.61695793776099E-15   0.00000000000000E+00   0.00000000000000E+00
      0.00000000000000E+00   0.00000000000000E+00  -2.02428647595097E-19  -6.91058613663064E-28  -2.02428648286156E-19
      1.63581696677939E-15   2.45366666666667E+00   2.45366666666667E+00   0.00000000000000E+00   0.00000000000000E+00
      1.80189238616756E-15   3.68412100022661E-20   1.80192922737756E-15   3.97669369078762E-15   0.00000000000000E+00
      0.00000000000000E+00   0.00000000000000E+00   0.00000000000000E+00   0.00000000000000E+00   0.00000000000000E+00
      0.00000000000000E+00   4.44728019397021E-18
      8.42888888888889E-01
      0.00000000000000E+00   0.00000000000000E+00   0.00000000000000E+00   0.00000000000000E+00  -6.07698394210524E-20
     -1.81522891594525E-15  -1.81528968578467E-15  -5.67147479764112E-15   0.00000000000000E+00   0.00000000000000E+00
      0.00000000000000E+00   0.00000000000000E+00  -2.02435812554590E-19  -1.31497454397372E-25  -2.02435944052044E-19
      1.63581696677939E-15   2.52866666666667E+00   2.52866666666667E+00   0.00000000000000E+00   0.00000000000000E+00
      1.81545526725830E-15   3.68544704266523E-20   1.81549212172872E-15   4.03772912903709E-15   0.00000000000000E+00
      0.00000000000000E+00   0.00000000000000E+00   0.00000000000000E+00   0.00000000000000E+00   0.00000000000000E+00
      0.00000000000000E+00  -2.07129817535634E-18
      8.67888888888889E-01
      0.00000000000000E+00   0.00000000000000E+00   0.00000000000000E+00   0.00000000000000E+00  -6.08873047792908E-20