DF-ISE text

Info {
  version   = 1.0
  type      = xyplot
  datasets  = [
    "time"
    "substrate OuterVoltage" "substrate InnerVoltage" "substrate QuasiFermiPotential" "substrate DisplacementCurrent" "substrate eCurrent"
    "substrate hCurrent" "substrate TotalCurrent" "substrate Charge" "source OuterVoltage" "source InnerVoltage"
    "source QuasiFermiPotential" "source DisplacementCurrent" "source eCurrent" "source hCurrent" "source TotalCurrent"
    "source Charge" "drain OuterVoltage" "drain InnerVoltage" "drain QuasiFermiPotential" "drain DisplacementCurrent"
    "drain eCurrent" "drain hCurrent" "drain TotalCurrent" "drain Charge" "gate OuterVoltage"
    "gate InnerVoltage" "gate QuasiFermiPotential" "gate DisplacementCurrent" "gate eCurrent" "gate hCurrent"
    "gate TotalCurrent" "gate Charge" ]
  functions = [
    Time
    OuterVoltage InnerVoltage QuasiFermiPotential DisplacementCurrent eCurrent
    hCurrent TotalCurrent Charge OuterVoltage InnerVoltage
    QuasiFermiPotential DisplacementCurrent eCurrent hCurrent TotalCurrent
    Charge OuterVoltage InnerVoltage QuasiFermiPotential DisplacementCurrent
    eCurrent hCurrent TotalCurrent Charge OuterVoltage
    InnerVoltage QuasiFermiPotential DisplacementCurrent eCurrent hCurrent
    TotalCurrent Charge ]
}

Data {
      0.00000000000000E+00
      0.00000000000000E+00   0.00000000000000E+00   0.00000000000000E+00   0.00000000000000E+00  -1.33409434055580E-19
      1.06162104322109E-26  -1.33409423439370E-19  -4.03836772445698E-15   0.00000000000000E+00   0.00000000000000E+00
      0.00000000000000E+00   0.00000000000000E+00   1.18375656952675E-19  -1.03239354588314E-26   1.18375646628740E-19
      1.54316139206082E-15   0.00000000000000E+00   0.00000000000000E+00   0.00000000000000E+00   0.00000000000000E+00
      1.50337771027793E-20  -2.92148993911937E-28   1.50337768106303E-20   1.54316139206082E-15   1.00000000000000E+00
      1.00000000000000E+00   0.00000000000000E+00   0.00000000000000E+00   0.00000000000000E+00   0.00000000000000E+00
      0.00000000000000E+00   9.52044940335332E-16
      1.00000000000000E-02
      0.00000000000000E+00   0.00000000000000E+00   0.00000000000000E+00   0.00000000000000E+00   8.28477568515405E-17
     -3.05076600252780E-17   5.23400968262626E-17  -4.07231658310913E-15   0.00000000000000E+00   0.00000000000000E+00
      0.00000000000000E+00   0.00000000000000E+00  -7.58142611632667E-16   5.52000977548321E-27  -7.58142611627147E-16
      1.54316139205453E-15   3.00000000000000E-02   3.00000000000000E-02   0.00000000000000E+00   0.00000000000000E+00
      7.05777775375875E-16   2.47394250084547E-20   7.05802514800884E-16   1.58045865984566E-15   1.00000000000000E+00
      1.00000000000000E+00   0.00000000000000E+00   0.00000000000000E+00   0.00000000000000E+00   0.00000000000000E+00
      0.00000000000000E+00   9.48696531208942E-16
      2.33333333333333E-02
      0.00000000000000E+00   0.00000000000000E+00   0.00000000000000E+00   0.00000000000000E+00  -5.61718009006291E-19
     -6.23119232310057E-17  -6.28736412400120E-17  -4.11689371533845E-15   0.00000000000000E+00   0.00000000000000E+00
      0.00000000000000E+00   0.00000000000000E+00  -9.93714118554665E-16   8.72280107816413E-27  -9.93714118545942E-16
      1.54316139204636E-15   7.00000000000000E-02   7.00000000000000E-02   0.00000000000000E+00   0.00000000000000E+00
      1.05655563531869E-15   3.21244672611791E-20   1.05658775978595E-15   1.62939565274174E-15   1.00000000000000E+00
      1.00000000000000E+00   0.00000000000000E+00   0.00000000000000E+00   0.00000000000000E+00   0.00000000000000E+00
      0.00000000000000E+00   9.44336670550357E-16
      4.24444444444445E-02
      0.00000000000000E+00   0.00000000000000E+00   0.00000000000000E+00   0.00000000000000E+00  -1.25422990667724E-16
     -1.11576348055020E-16  -2.36999338722744E-16  -4.17936662714394E-15   0.00000000000000E+00   0.00000000000000E+00
      0.00000000000000E+00   0.00000000000000E+00  -1.02822297463441E-15  -7.53295898027107E-27  -1.02822297464194E-15
      1.54316139203496E-15   1.27333333333333E-01   1.27333333333333E-01   0.00000000000000E+00   0.00000000000000E+00
      1.26520012391323E-15   2.21894514568080E-20   1.26522231336468E-15   1.69792902398748E-15   1.00000000000000E+00
      1.00000000000000E+00   0.00000000000000E+00   0.00000000000000E+00   0.00000000000000E+00   0.00000000000000E+00
      0.00000000000000E+00   9.38276211121488E-16
      6.74444444444444E-02
      0.00000000000000E+00   0.00000000000000E+00   0.00000000000000E+00   0.00000000000000E+00   4.25577025212049E-19
     -2.17681211719569E-16  -2.17255634694357E-16  -4.25850321997832E-15   0.00000000000000E+00   0.00000000000000E+00
      0.00000000000000E+00   0.00000000000000E+00  -1.03284013464349E-15  -6.95246271603710E-29  -1.03284013464356E-15
      1.54316139202041E-15   2.02333333333333E-01   2.02333333333333E-01   0.00000000000000E+00   0.00000000000000E+00
      1.25009011365276E-15   5.65568515876714E-21   1.25009576933792E-15   1.78472675000807E-15   1.00000000000000E+00
      1.00000000000000E+00   0.00000000000000E+00   0.00000000000000E+00   0.00000000000000E+00   0.00000000000000E+00
      0.00000000000000E+00   9.30615077949845E-16
      9.24444444444444E-02
      0.00000000000000E+00   0.00000000000000E+00   0.00000000000000E+00   0.00000000000000E+00   3.29948578656155E-20
     -3.50415633653766E-16  -3.50382638795900E-16  -4.33490831169236E-15   0.00000000000000E+00   0.00000000000000E+00
      0.00000000000000E+00   0.00000000000000E+00  -1.03738355165531E-15   2.68913690726916E-27  -1.03738355165262E-15
      1.54316139200599E-15   2.77333333333333E-01   2.77333333333333E-01   0.00000000000000E+00   0.00000000000000E+00
      1.38773023866348E-15   3.59517850463190E-20   1.38776619044852E-15   1.86859746227847E-15   1.00000000000000E+00
      1.00000000000000E+00   0.00000000000000E+00   0.00000000000000E+00   0.00000000000000E+00   0.00000000000000E+00
      0.00000000000000E+00   9.23149457407895E-16
      1.17444444444444E-01
      0.00000000000000E+00   0.00000000000000E+00   0.00000000000000E+00   0.00000000000000E+00   1.89341733490027E-19
     -4.38054728540224E-16  -4.37865386806734E-16  -4.40916202539831E-15   0.00000000000000E+00   0.00000000000000E+00
      0.00000000000000E+00   0.00000000000000E+00  -1.04205485064657E-15   1.66720886298892E-27  -1.04205485064491E-15
      1.54316139199153E-15   3.52333333333333E-01   3.52333333333333E-01   0.00000000000000E+00   0.00000000000000E+00
      1.47988392642019E-15   3.63110314459746E-20   1.47992023745164E-15   1.95020567993026E-15   1.00000000000000E+00
      1.00000000000000E+00   0.00000000000000E+00   0.00000000000000E+00   0.00000000000000E+00   0.00000000000000E+00
      0.00000000000000E+00   9.15794953476520E-16
      1.42444444444444E-01
      0.00000000000000E+00   0.00000000000000E+00   0.00000000000000E+00   0.00000000000000E+00  -4.57612420636622E-19
     -4.84359512835439E-16  -4.84817125256076E-16  -4.48192398480021E-15   0.00000000000000E+00   0.00000000000000E+00
      0.00000000000000E+00   0.00000000000000E+00  -1.04576294645028E-15  -1.61131145560693E-27  -1.04576294645189E-15
      1.54316139197692E-15   4.27333333333333E-01   4.27333333333333E-01   0.00000000000000E+00   0.00000000000000E+00
      1.53054319992872E-15   3.68717792470025E-20   1.53058007170797E-15   2.03024758714139E-15   1.00000000000000E+00
      1.00000000000000E+00   0.00000000000000E+00   0.00000000000000E+00   0.00000000000000E+00   0.00000000000000E+00
      0.00000000000000E+00   9.08515005681892E-16
      1.67444444444444E-01
      0.00000000000000E+00   0.00000000000000E+00   0.00000000000000E+00   0.00000000000000E+00   2.24336350066241E-19
     -5.20451318602593E-16  -5.20226982252527E-16  -4.55366783749193E-15   0.00000000000000E+00   0.00000000000000E+00
      0.00000000000000E+00   0.00000000000000E+00  -1.05067732428553E-15   5.52827933120156E-27  -1.05067732428000E-15
      1.54316139196214E-15   5.02333333333333E-01   5.02333333333333E-01   0.00000000000000E+00   0.00000000000000E+00
      1.57086745100182E-15   3.68555307057568E-20   1.57090430653253E-15   2.10920340042680E-15   1.00000000000000E+00
      1.00000000000000E+00   0.00000000000000E+00   0.00000000000000E+00   0.00000000000000E+00   0.00000000000000E+00
      0.00000000000000E+00   9.01303045102973E-16
      1.92444444444444E-01
      0.00000000000000E+00   0.00000000000000E+00   0.00000000000000E+00   0.00000000000000E+00   3.14914744838694E-19
     -5.52776080785708E-16  -5.52461166040870E-16  -4.62465461669216E-15   0.00000000000000E+00   0.00000000000000E+00
      0.00000000000000E+00   0.00000000000000E+00  -1.05486282000432E-15   5.42748257755945E-27  -1.05486281999889E-15
      1.54316139194721E-15   5.77333333333333E-01   5.77333333333333E-01   0.00000000000000E+00   0.00000000000000E+00
      1.60728714809376E-15   3.68379460070593E-20   1.60732398603976E-15   2.18732706727187E-15   1.00000000000000E+00
      1.00000000000000E+00   0.00000000000000E+00   0.00000000000000E+00   0.00000000000000E+00   0.00000000000000E+00
      0.00000000000000E+00   8.94166157473088E-16
      2.17444444444444E-01
      0.00000000000000E+00   0.00000000000000E+00   0.00000000000000E+00   0.00000000000000E+00   1.46906263050821E-20
     -5.83762731972060E-16  -5.83748041345755E-16  -4.69500312396314E-15   0.00000000000000E+00   0.00000000000000E+00
      0.00000000000000E+00   0.00000000000000E+00  -1.05852135326883E-15  -6.04119202669330E-27  -1.05852135327487E-15
      1.54316139193218E-15   6.52333333333333E-01   6.52333333333333E-01   0.00000000000000E+00   0.00000000000000E+00
      1.64223257545648E-15   3.68191641441744E-20   1.64226939462063E-15   2.26472577026025E-15   1.00000000000000E+00
      1.00000000000000E+00   0.00000000000000E+00   0.00000000000000E+00   0.00000000000000E+00   0.00000000000000E+00
      0.00000000000000E+00   8.87115961770717E-16
      2.42444444444444E-01
      0.00000000000000E+00   0.00000000000000E+00   0.00000000000000E+00   0.00000000000000E+00   8.62090418039882E-20
     -6.16715479439994E-16  -6.16629270398190E-16  -4.76475505322923E-15   0.00000000000000E+00   0.00000000000000E+00
      0.00000000000000E+00   0.00000000000000E+00  -1.06241742577290E-15   1.65231862636437E-27  -1.06241742577125E-15
      1.54316139191707E-15   7.27333333333333E-01   7.27333333333333E-01   0.00000000000000E+00   0.00000000000000E+00
      1.67900989610710E-15   3.68000623315223E-20   1.67904669616943E-15   2.34143232203819E-15   1.00000000000000E+00
      1.00000000000000E+00   0.00000000000000E+00   0.00000000000000E+00   0.00000000000000E+00   0.00000000000000E+00
      0.00000000000000E+00   8.80161339273967E-16
      2.67444444444444E-01
      0.00000000000000E+00   0.00000000000000E+00   0.00000000000000E+00   0.00000000000000E+00   2.41372981475350E-21
     -6.53662366722745E-16  -6.53659952992930E-16  -4.83391898384329E-15   0.00000000000000E+00   0.00000000000000E+00
      0.00000000000000E+00   0.00000000000000E+00  -1.06603068875396E-15  -4.38072959566804E-28  -1.06603068875440E-15
      1.54316139190191E-15   8.02333333333333E-01   8.02333333333333E-01   0.00000000000000E+00   0.00000000000000E+00
      1.71965386016919E-15   3.67815781384022E-20   1.71969064174733E-15   2.41745710965690E-15   1.00000000000000E+00
      1.00000000000000E+00   0.00000000000000E+00   0.00000000000000E+00   0.00000000000000E+00   0.00000000000000E+00
      0.00000000000000E+00   8.73300482284491E-16
      2.92444444444444E-01
      0.00000000000000E+00   0.00000000000000E+00   0.00000000000000E+00   0.00000000000000E+00  -1.52654220980012E-19
     -6.99694171966148E-16  -6.99846826187128E-16  -4.90249524406896E-15   0.00000000000000E+00   0.00000000000000E+00
      0.00000000000000E+00   0.00000000000000E+00  -1.06946292281411E-15  -1.36583797586513E-27  -1.06946292281548E-15
      1.54316139188665E-15   8.77333333333333E-01   8.77333333333334E-01   0.00000000000000E+00   0.00000000000000E+00
      1.76927298399287E-15   3.67650097418854E-20   1.76930974900261E-15   2.49281723471212E-15   1.00000000000000E+00
      1.00000000000000E+00   0.00000000000000E+00   0.00000000000000E+00   0.00000000000000E+00   0.00000000000000E+00
      0.00000000000000E+00   8.66516617470187E-16
      3.17444444444444E-01
      0.00000000000000E+00   0.00000000000000E+00   0.00000000000000E+00   0.00000000000000E+00   3.02600183510095E-19
     -7.60487892144801E-16  -7.60185291961290E-16  -4.97048151418279E-15   0.00000000000000E+00   0.00000000000000E+00
      0.00000000000000E+00   0.00000000000000E+00  -1.07342007331704E-15  -7.23734897401306E-27  -1.07342007332427E-15
      1.54316139187121E-15   9.52333333333333E-01   9.52333333333333E-01   0.00000000000000E+00   0.00000000000000E+00
      1.83356861307297E-15   3.67522125936357E-20   1.83360536528556E-15   2.56753663684511E-15   1.00000000000000E+00
      1.00000000000000E+00   0.00000000000000E+00   0.00000000000000E+00   0.00000000000000E+00   0.00000000000000E+00
      0.00000000000000E+00   8.59783485466481E-16
      3.42444444444444E-01
      0.00000000000000E+00   0.00000000000000E+00   0.00000000000000E+00   0.00000000000000E+00   1.49016468730205E-19
     -8.40196672906819E-16  -8.40047656438089E-16  -5.03786399442025E-15   0.00000000000000E+00   0.00000000000000E+00
      0.00000000000000E+00   0.00000000000000E+00  -1.07670857164508E-15  -1.12569233043123E-27  -1.07670857164621E-15
      1.54316139185552E-15   1.02733333333333E+00   1.02733333333333E+00   0.00000000000000E+00   0.00000000000000E+00
      1.91671948381067E-15   3.67442736246080E-20   1.91675622808430E-15   2.64162639071864E-15   1.00000000000000E+00
      1.00000000000000E+00   0.00000000000000E+00   0.00000000000000E+00   0.00000000000000E+00   0.00000000000000E+00
      0.00000000000000E+00   8.53076211846089E-16
      3.67444444444445E-01
      0.00000000000000E+00   0.00000000000000E+00   0.00000000000000E+00   0.00000000000000E+00  -5.44049842121708E-19
     -9.40892277411893E-16  -9.41436327254014E-16  -5.10460325537569E-15   0.00000000000000E+00   0.00000000000000E+00
      0.00000000000000E+00   0.00000000000000E+00  -1.07938919359878E-15  -5.41165833027825E-27  -1.07938919360420E-15
      1.54316139183953E-15   1.10233333333333E+00   1.10233333333333E+00   0.00000000000000E+00   0.00000000000000E+00
      2.02078878004443E-15   3.67408137802619E-20   2.02082552085821E-15   2.71506430839259E-15   1.00000000000000E+00
      1.00000000000000E+00   0.00000000000000E+00   0.00000000000000E+00   0.00000000000000E+00   0.00000000000000E+00
      0.00000000000000E+00   8.46377555143551E-16
      3.92444444444445E-01
      0.00000000000000E+00   0.00000000000000E+00   0.00000000000000E+00   0.00000000000000E+00   8.23626092093509E-20
     -1.06596424909402E-15  -1.06588188648481E-15  -5.17062099736211E-15   0.00000000000000E+00   0.00000000000000E+00
      0.00000000000000E+00   0.00000000000000E+00  -1.08334288394686E-15  -6.00761924371916E-27  -1.08334288395287E-15
      1.54316139182320E-15   1.17733333333333E+00   1.17733333333333E+00   0.00000000000000E+00   0.00000000000000E+00
      2.14918802933009E-15   3.67411075929749E-20   2.14922477043768E-15   2.78778186503448E-15   1.00000000000000E+00
      1.00000000000000E+00   0.00000000000000E+00   0.00000000000000E+00   0.00000000000000E+00   0.00000000000000E+00
      0.00000000000000E+00   8.39677740504435E-16
      4.17444444444445E-01
      0.00000000000000E+00   0.00000000000000E+00   0.00000000000000E+00   0.00000000000000E+00   2.17136112880364E-19
     -1.21590441654611E-15  -1.21568728043323E-15  -5.23579151010677E-15   0.00000000000000E+00   0.00000000000000E+00
      0.00000000000000E+00   0.00000000000000E+00  -1.08680847611822E-15   7.11664708381469E-27  -1.08680847611110E-15
      1.54316139180651E-15   1.25233333333333E+00   1.25233333333333E+00   0.00000000000000E+00   0.00000000000000E+00
      2.30245901197883E-15   3.67445655010431E-20   2.30249575654433E-15   2.85965821638216E-15   1.00000000000000E+00
      1.00000000000000E+00   0.00000000000000E+00   0.00000000000000E+00   0.00000000000000E+00   0.00000000000000E+00
      0.00000000000000E+00   8.32971901918112E-16
      4.42444444444445E-01
      0.00000000000000E+00   0.00000000000000E+00   0.00000000000000E+00   0.00000000000000E+00   7.46567638429109E-20
     -1.36940477184412E-15  -1.36933011508027E-15  -5.29994232823123E-15   0.00000000000000E+00   0.00000000000000E+00
      0.00000000000000E+00   0.00000000000000E+00  -1.08992820288140E-15  -6.97390282316893E-27  -1.08992820288838E-15
      1.54316139178946E-15   1.32733333333333E+00   1.32733333333333E+00   0.00000000000000E+00   0.00000000000000E+00
      2.45922156762589E-15   3.67503427600756E-20   2.45925831796866E-15   2.93052308854200E-15   1.00000000000000E+00
      1.00000000000000E+00   0.00000000000000E+00   0.00000000000000E+00   0.00000000000000E+00   0.00000000000000E+00
      0.00000000000000E+00   8.26257847899778E-16
      4.67444444444445E-01
      0.00000000000000E+00   0.00000000000000E+00   0.00000000000000E+00   0.00000000000000E+00   8.79542570908867E-20
     -1.49103993378840E-15  -1.49095197953131E-15  -5.36287383451728E-15   0.00000000000000E+00   0.00000000000000E+00
      0.00000000000000E+00   0.00000000000000E+00  -1.09318780178327E-15   3.65098790434402E-27  -1.09318780177962E-15
      1.54316139177206E-15   1.40233333333333E+00   1.40233333333333E+00   0.00000000000000E+00   0.00000000000000E+00
      2.58410302374272E-15   3.67575682114789E-20   2.58413978131093E-15   3.00017773720668E-15   1.00000000000000E+00
      1.00000000000000E+00   0.00000000000000E+00   0.00000000000000E+00   0.00000000000000E+00   0.00000000000000E+00
      0.00000000000000E+00   8.19534705538545E-16
      4.92444444444445E-01
      0.00000000000000E+00   0.00000000000000E+00   0.00000000000000E+00   0.00000000000000E+00  -3.38021147062123E-20
     -1.56886003327398E-15  -1.56889383538868E-15  -5.42441272043167E-15   0.00000000000000E+00   0.00000000000000E+00
      0.00000000000000E+00   0.00000000000000E+00  -1.09627247506615E-15   4.05374955746249E-27  -1.09627247506209E-15
      1.54316139175432E-15   1.47733333333333E+00   1.47733333333333E+00   0.00000000000000E+00   0.00000000000000E+00
      2.66512954495615E-15   3.67654946244741E-20   2.66516631045078E-15   3.06844911224053E-15   1.00000000000000E+00
      1.00000000000000E+00   0.00000000000000E+00   0.00000000000000E+00   0.00000000000000E+00   0.00000000000000E+00
      0.00000000000000E+00   8.12802216436815E-16
      5.17444444444445E-01
      0.00000000000000E+00   0.00000000000000E+00   0.00000000000000E+00   0.00000000000000E+00  -5.72916283251976E-19
     -1.61635324968903E-15  -1.61692616597229E-15  -5.48449731210812E-15   0.00000000000000E+00   0.00000000000000E+00
      0.00000000000000E+00   0.00000000000000E+00  -1.09890731604196E-15   8.41394025616765E-28  -1.09890731604112E-15
      1.54316139173623E-15   1.55233333333333E+00   1.55233333333333E+00   0.00000000000000E+00   0.00000000000000E+00
      2.71579670842986E-15   3.67735835435531E-20   2.71583348201340E-15   3.13527551727808E-15   1.00000000000000E+00
      1.00000000000000E+00   0.00000000000000E+00   0.00000000000000E+00   0.00000000000000E+00   0.00000000000000E+00
      0.00000000000000E+00   8.06060403093809E-16
      5.42444444444445E-01
      0.00000000000000E+00   0.00000000000000E+00   0.00000000000000E+00   0.00000000000000E+00  -4.07945910382536E-20
     -1.64885414159708E-15  -1.64889493618812E-15  -5.54324067906528E-15   0.00000000000000E+00   0.00000000000000E+00
      0.00000000000000E+00   0.00000000000000E+00  -1.10258300604054E-15   4.94362348168175E-28  -1.10258300604005E-15
      1.54316139171776E-15   1.62733333333333E+00   1.62733333333333E+00   0.00000000000000E+00   0.00000000000000E+00
      2.75144116070703E-15   3.67815211403317E-20   2.75147794222817E-15   3.20076986386732E-15   1.00000000000000E+00
      1.00000000000000E+00   0.00000000000000E+00   0.00000000000000E+00   0.00000000000000E+00   0.00000000000000E+00
      0.00000000000000E+00   7.99309423480193E-16
      5.67444444444445E-01
      0.00000000000000E+00   0.00000000000000E+00   0.00000000000000E+00   0.00000000000000E+00  -4.38229375339551E-19
     -1.67414025425138E-15  -1.67457848362672E-15  -5.60089836187577E-15   0.00000000000000E+00   0.00000000000000E+00
      0.00000000000000E+00   0.00000000000000E+00  -1.10530001737916E-15  -6.44931429622663E-27  -1.10530001738561E-15
      1.54316139169892E-15   1.70233333333333E+00   1.70233333333333E+00   0.00000000000000E+00   0.00000000000000E+00
      2.77984171184116E-15   3.67891711720987E-20   2.77987850101233E-15   3.26518745597598E-15   1.00000000000000E+00
      1.00000000000000E+00   0.00000000000000E+00   0.00000000000000E+00   0.00000000000000E+00   0.00000000000000E+00
      0.00000000000000E+00   7.92549514200869E-16
      5.92444444444445E-01
      0.00000000000000E+00   0.00000000000000E+00   0.00000000000000E+00   0.00000000000000E+00   5.04877376722750E-19
     -1.69427400607471E-15  -1.69376912869798E-15  -5.65775855832519E-15   0.00000000000000E+00   0.00000000000000E+00
      0.00000000000000E+00   0.00000000000000E+00  -1.10932909877139E-15   1.69257001193663E-27  -1.10932909876970E-15
      1.54316139167970E-15   1.77733333333333E+00   1.77733333333333E+00   0.00000000000000E+00   0.00000000000000E+00
      2.80306143097185E-15   3.67964958304800E-20   2.80309822746769E-15   3.32881619515436E-15   1.00000000000000E+00
      1.00000000000000E+00   0.00000000000000E+00   0.00000000000000E+00   0.00000000000000E+00   0.00000000000000E+00
      0.00000000000000E+00   7.85780971491137E-16
      6.17444444444445E-01
      0.00000000000000E+00   0.00000000000000E+00   0.00000000000000E+00   0.00000000000000E+00   1.94645973663895E-19
     -1.71025828238367E-15  -1.71006363641001E-15  -5.71405318704311E-15   0.00000000000000E+00   0.00000000000000E+00
      0.00000000000000E+00   0.00000000000000E+00  -1.11207729473666E-15   4.96455972041827E-27  -1.11207729473169E-15
      1.54316139166010E-15   1.85233333333333E+00   1.85233333333333E+00   0.00000000000000E+00   0.00000000000000E+00
      2.82210412764493E-15   3.68034967718575E-20   2.82214093114170E-15   3.39188764953365E-15   1.00000000000000E+00
      1.00000000000000E+00   0.00000000000000E+00   0.00000000000000E+00   0.00000000000000E+00   0.00000000000000E+00
      0.00000000000000E+00   7.79004145849368E-16
      6.42444444444445E-01
      0.00000000000000E+00   0.00000000000000E+00   0.00000000000000E+00   0.00000000000000E+00  -5.55136648095560E-20
     -1.72372521497505E-15  -1.72378072863986E-15  -5.76993616434220E-15   0.00000000000000E+00   0.00000000000000E+00
      0.00000000000000E+00   0.00000000000000E+00  -1.11485877926860E-15   8.28303232790754E-27  -1.11485877926032E-15
      1.54316139164011E-15   1.92733333333333E+00   1.92733333333333E+00   0.00000000000000E+00   0.00000000000000E+00
      2.83860269771277E-15   3.68101874142186E-20   2.83863950790018E-15   3.45455533482243E-15   1.00000000000000E+00
      1.00000000000000E+00   0.00000000000000E+00   0.00000000000000E+00   0.00000000000000E+00   0.00000000000000E+00
      0.00000000000000E+00   7.72219437879658E-16
      6.67444444444445E-01
      0.00000000000000E+00   0.00000000000000E+00   0.00000000000000E+00   0.00000000000000E+00  -4.16954860596501E-19
     -1.73625544811393E-15  -1.73667240297452E-15  -5.82550121732583E-15   0.00000000000000E+00   0.00000000000000E+00
      0.00000000000000E+00   0.00000000000000E+00  -1.11750287384974E-15   2.00234206694562E-27  -1.11750287384774E-15
      1.54316139161974E-15   2.00233333333333E+00   2.00233333333333E+00   0.00000000000000E+00   0.00000000000000E+00
      2.85413846023873E-15   3.68165835387661E-20   2.85417527682226E-15   3.51691254044499E-15   1.00000000000000E+00
      1.00000000000000E+00   0.00000000000000E+00   0.00000000000000E+00   0.00000000000000E+00   0.00000000000000E+00
      0.00000000000000E+00   7.65427285261098E-16
      6.92444444444445E-01
      0.00000000000000E+00   0.00000000000000E+00   0.00000000000000E+00   0.00000000000000E+00   4.29332027548640E-20
     -1.74911287749213E-15  -1.74906994428937E-15  -5.88080472496495E-15   0.00000000000000E+00   0.00000000000000E+00
      0.00000000000000E+00   0.00000000000000E+00  -1.12094272320153E-15  -5.43264233000867E-27  -1.12094272320697E-15
      1.54316139159873E-15   2.07733333333333E+00   2.07733333333333E+00   0.00000000000000E+00   0.00000000000000E+00
      2.86997585907902E-15   3.68084173189213E-20   2.87001266749634E-15   3.57901520076332E-15   1.00000000000000E+00
      1.00000000000000E+00   0.00000000000000E+00   0.00000000000000E+00   0.00000000000000E+00   0.00000000000000E+00
      0.00000000000000E+00   7.58628132602891E-16
      7.17444444444445E-01
      0.00000000000000E+00   0.00000000000000E+00   0.00000000000000E+00   0.00000000000000E+00   3.59038016670351E-19
     -1.76300763075391E-15  -1.76264859273724E-15  -5.93588094761057E-15   0.00000000000000E+00   0.00000000000000E+00
      0.00000000000000E+00   0.00000000000000E+00  -1.12421410410848E-15   8.77760049671688E-28  -1.12421410410760E-15
      1.54316139157770E-15   2.15233333333333E+00   2.15233333333333E+00   0.00000000000000E+00   0.00000000000000E+00
      2.88682594456725E-15   3.67522775895269E-20   2.88686269684484E-15   3.64089717198473E-15   1.00000000000000E+00
      1.00000000000000E+00   0.00000000000000E+00   0.00000000000000E+00   0.00000000000000E+00   0.00000000000000E+00
      0.00000000000000E+00   7.51822384048130E-16
      7.42444444444445E-01
      0.00000000000000E+00   0.00000000000000E+00   0.00000000000000E+00   0.00000000000000E+00   2.05918255073149E-19
     -1.77790143263307E-15  -1.77769551437800E-15  -5.99075027455086E-15   0.00000000000000E+00   0.00000000000000E+00
      0.00000000000000E+00   0.00000000000000E+00  -1.12699203228437E-15  -7.13098488834935E-27  -1.12699203229150E-15
      1.54316139155620E-15   2.22733333333333E+00   2.22733333333333E+00   0.00000000000000E+00   0.00000000000000E+00
      2.90465076596114E-15   3.67807083550487E-20   2.90468754666950E-15   3.70257853214593E-15   1.00000000000000E+00
      1.00000000000000E+00   0.00000000000000E+00   0.00000000000000E+00   0.00000000000000E+00   0.00000000000000E+00
      0.00000000000000E+00   7.45010350848726E-16
      7.67444444444445E-01
      0.00000000000000E+00   0.00000000000000E+00   0.00000000000000E+00   0.00000000000000E+00  -2.27595974571676E-19
     -1.79315921015484E-15  -1.79338680612941E-15  -6.04542374717398E-15   0.00000000000000E+00   0.00000000000000E+00
      0.00000000000000E+00   0.00000000000000E+00  -1.12946622553782E-15  -3.68236118413655E-27  -1.12946622554150E-15
      1.54316139153424E-15   2.30233333333333E+00   2.30233333333333E+00   0.00000000000000E+00   0.00000000000000E+00
      2.92281620326406E-15   3.68284068581207E-20   2.92285303167091E-15   3.76407014133659E-15   1.00000000000000E+00
      1.00000000000000E+00   0.00000000000000E+00   0.00000000000000E+00   0.00000000000000E+00   0.00000000000000E+00
      0.00000000000000E+00   7.38192214303158E-16
      7.92444444444445E-01
      0.00000000000000E+00   0.00000000000000E+00   0.00000000000000E+00   0.00000000000000E+00   2.20598033727926E-19
     -1.80789153822649E-15  -1.80767094019276E-15  -6.09990607715775E-15   0.00000000000000E+00   0.00000000000000E+00
      0.00000000000000E+00   0.00000000000000E+00  -1.13279973958521E-15  -8.22260510592401E-27  -1.13279973959343E-15
      1.54316139151185E-15   2.37733333333333E+00   2.37733333333333E+00   0.00000000000000E+00   0.00000000000000E+00
      2.94043383584912E-15   3.68439370740962E-20   2.94047067978619E-15   3.82537666460934E-15   1.00000000000000E+00
      1.00000000000000E+00   0.00000000000000E+00   0.00000000000000E+00   0.00000000000000E+00   0.00000000000000E+00
      0.00000000000000E+00   7.31368021036561E-16
      8.17444444444445E-01
      0.00000000000000E+00   0.00000000000000E+00   0.00000000000000E+00   0.00000000000000E+00  -8.81535419083300E-20
     -1.82150989924406E-15  -1.82159805278597E-15  -6.15419819715805E-15   0.00000000000000E+00   0.00000000000000E+00
      0.00000000000000E+00   0.00000000000000E+00  -1.13535495083295E-15  -2.72435021446374E-27  -1.13535495083567E-15
      1.54316139148907E-15   2.45233333333333E+00   2.45233333333333E+00   0.00000000000000E+00   0.00000000000000E+00
      2.95691615398290E-15   3.68496387385507E-20   2.95695300362164E-15   3.88649909208018E-15   1.00000000000000E+00
      1.00000000000000E+00   0.00000000000000E+00   0.00000000000000E+00   0.00000000000000E+00   0.00000000000000E+00
      0.00000000000000E+00   7.24537713588809E-16
      8.42444444444445E-01
      0.00000000000000E+00   0.00000000000000E+00   0.00000000000000E+00   0.00000000000000E+00   4.42773223148277E-19
     -1.83513973050425E-15  -1.83469695728110E-15  -6.20829951492133E-15   0.00000000000000E+00   0.00000000000000E+00
      0.00000000000000E+00   0.00000000000000E+00  -1.13872952904662E-15   4.90899428826639E-27  -1.13872952904171E-15
      1.54316139146592E-15   2.52733333333333E+00   2.52733333333333E+00   0.00000000000000E+00   0.00000000000000E+00
      2.97338963244924E-15   3.68538735757725E-20   2.97342648632281E-15   3.94743693988781E-15   1.00000000000000E+00
      1.00000000000000E+00   0.00000000000000E+00   0.00000000000000E+00   0.00000000000000E+00   0.00000000000000E+00
      0.00000000000000E+00   7.17701183567606E-16
      8.67444444444445E-01
      0.00000000000000E+00   0.00000000000000E+00   0.00000000000000E+00   0.00000000000000E+00  -5.08246444428563E-21