DF-ISE text

Info {
  version   = 1.0
  type      = xyplot
  datasets  = [
    "time"
    "substrate OuterVoltage" "substrate InnerVoltage" "substrate QuasiFermiPotential" "substrate DisplacementCurrent" "substrate eCurrent"
    "substrate hCurrent" "substrate TotalCurrent" "substrate Charge" "source OuterVoltage" "source InnerVoltage"
    "source QuasiFermiPotential" "source DisplacementCurrent" "source eCurrent" "source hCurrent" "source TotalCurrent"
    "source Charge" "drain OuterVoltage" "drain InnerVoltage" "drain QuasiFermiPotential" "drain DisplacementCurrent"
    "drain eCurrent" "drain hCurrent" "drain TotalCurrent" "drain Charge" "gate OuterVoltage"
    "gate InnerVoltage" "gate QuasiFermiPotential" "gate DisplacementCurrent" "gate eCurrent" "gate hCurrent"
    "gate TotalCurrent" "gate Charge" ]
  functions = [
    Time
    OuterVoltage InnerVoltage QuasiFermiPotential DisplacementCurrent eCurrent
    hCurrent TotalCurrent Charge OuterVoltage InnerVoltage
    QuasiFermiPotential DisplacementCurrent eCurrent hCurrent TotalCurrent
    Charge OuterVoltage InnerVoltage QuasiFermiPotential DisplacementCurrent
    eCurrent hCurrent TotalCurrent Charge OuterVoltage
    InnerVoltage QuasiFermiPotential DisplacementCurrent eCurrent hCurrent
    TotalCurrent Charge ]
}

Data {
      0.00000000000000E+00
      0.00000000000000E+00   0.00000000000000E+00   0.00000000000000E+00   0.00000000000000E+00  -6.70271839277829E-34
     -4.42469636657099E-17  -4.42469636657099E-17   2.97059460245599E-17   0.00000000000000E+00   0.00000000000000E+00
      0.00000000000000E+00   0.00000000000000E+00  -9.56982202404078E-34   2.23669482173872E-17   2.23669482173872E-17
     -3.18706680521689E-16   0.00000000000000E+00   0.00000000000000E+00   0.00000000000000E+00   0.00000000000000E+00
     -1.00545131722837E-33   2.18800154483227E-17   2.18800154483227E-17  -2.76229564153346E-16   0.00000000000000E+00
      0.00000000000000E+00   0.00000000000000E+00   0.00000000000000E+00   0.00000000000000E+00   0.00000000000000E+00
      0.00000000000000E+00   5.65230298650475E-16
      1.00000000000000E-02
      0.00000000000000E+00   0.00000000000000E+00   0.00000000000000E+00   0.00000000000000E+00  -2.46045625199505E-20
     -3.14174567537540E-05  -3.14174567537540E-05   2.96915053527819E-17   0.00000000000000E+00   0.00000000000000E+00
      0.00000000000000E+00   0.00000000000000E+00  -9.10766562392309E-21  -1.28068885150014E-04  -1.28068885150014E-04
     -3.11479696385184E-16   3.00000000000000E-02   3.00000000000000E-02   0.00000000000000E+00   0.00000000000000E+00
      1.12231555258328E-20   1.59486341903768E-04   1.59486341903768E-04  -2.69568712800739E-16   0.00000000000000E+00
      0.00000000000000E+00   0.00000000000000E+00   0.00000000000000E+00   0.00000000000000E+00   0.00000000000000E+00
      0.00000000000000E+00   5.51356903833141E-16
      2.36666666666667E-02
      0.00000000000000E+00   0.00000000000000E+00   0.00000000000000E+00   0.00000000000000E+00  -7.53749675653640E-20
     -7.42778694032832E-05  -7.42778694032833E-05   2.96718272926995E-17   0.00000000000000E+00   0.00000000000000E+00
      0.00000000000000E+00   0.00000000000000E+00  -2.18013481224322E-20  -3.03057498518720E-04  -3.03057498518720E-04
     -3.01611155457073E-16   7.10000000000000E-02   7.10000000000000E-02   0.00000000000000E+00   0.00000000000000E+00
      2.62295685800107E-20   3.77335367922004E-04   3.77335367922004E-04  -2.60472914527972E-16   0.00000000000000E+00
      0.00000000000000E+00   0.00000000000000E+00   0.00000000000000E+00   0.00000000000000E+00   0.00000000000000E+00
      0.00000000000000E+00   5.32412242692345E-16
      4.37111111111111E-02
      0.00000000000000E+00   0.00000000000000E+00   0.00000000000000E+00   0.00000000000000E+00  -1.95564569133087E-19
     -1.36961230589702E-04  -1.36961230589702E-04   2.96430988724186E-17   0.00000000000000E+00   0.00000000000000E+00
      0.00000000000000E+00   0.00000000000000E+00  -4.08697476608332E-20  -5.59617691993190E-04  -5.59617691993190E-04
     -2.87154395173280E-16   1.31133333333333E-01   1.31133333333333E-01   0.00000000000000E+00   0.00000000000000E+00
      4.77742412027244E-20   6.96578922582892E-04   6.96578922582892E-04  -2.47147560516884E-16   0.00000000000000E+00
      0.00000000000000E+00   0.00000000000000E+00   0.00000000000000E+00   0.00000000000000E+00   0.00000000000000E+00
      0.00000000000000E+00   5.04658856817745E-16
      6.87111111111111E-02
      0.00000000000000E+00   0.00000000000000E+00   0.00000000000000E+00   0.00000000000000E+00  -4.14188282530526E-19
     -2.14822564564915E-04  -2.14822564564916E-04   2.96075039672997E-17   0.00000000000000E+00   0.00000000000000E+00
      0.00000000000000E+00   0.00000000000000E+00  -6.52517106041416E-20  -8.79446484320201E-04  -8.79446484320201E-04
     -2.69151498110835E-16   2.06133333333333E-01   2.06133333333333E-01   0.00000000000000E+00   0.00000000000000E+00
      7.47150861150489E-20   1.09426904888512E-03   1.09426904888512E-03  -2.30552653246013E-16   0.00000000000000E+00
      0.00000000000000E+00   0.00000000000000E+00   0.00000000000000E+00   0.00000000000000E+00   0.00000000000000E+00
      0.00000000000000E+00   4.70096647389548E-16
      9.37111111111111E-02
      0.00000000000000E+00   0.00000000000000E+00   0.00000000000000E+00   0.00000000000000E+00  -6.56534681873508E-19
     -2.92311889042320E-04  -2.92311889042321E-04   2.95721831408254E-17   0.00000000000000E+00   0.00000000000000E+00
      0.00000000000000E+00   0.00000000000000E+00  -9.00779352308684E-20  -1.19908793680335E-03  -1.19908793680335E-03
     -2.51179029676087E-16   2.81133333333333E-01   2.81133333333333E-01   0.00000000000000E+00   0.00000000000000E+00
      1.02761648389773E-19   1.49139982584567E-03   1.49139982584567E-03  -2.13984824946126E-16   0.00000000000000E+00
      0.00000000000000E+00   0.00000000000000E+00   0.00000000000000E+00   0.00000000000000E+00   0.00000000000000E+00
      0.00000000000000E+00   4.35591671481388E-16
      1.18711111111111E-01
      0.00000000000000E+00   0.00000000000000E+00   0.00000000000000E+00   0.00000000000000E+00  -8.80683854492776E-19
     -3.69416619852419E-04  -3.69416619852420E-04   2.95371448997912E-17   0.00000000000000E+00   0.00000000000000E+00
      0.00000000000000E+00   0.00000000000000E+00  -1.15133261672906E-19  -1.51853515449366E-03  -1.51853515449366E-03
     -2.33236293559561E-16   3.56133333333333E-01   3.56133333333333E-01   0.00000000000000E+00   0.00000000000000E+00
      1.32612765495658E-19   1.88795177434608E-03   1.88795177434608E-03  -1.97443504423742E-16   0.00000000000000E+00
      0.00000000000000E+00   0.00000000000000E+00   0.00000000000000E+00   0.00000000000000E+00   0.00000000000000E+00
      0.00000000000000E+00   4.01142653083511E-16
      1.43711111111111E-01
      0.00000000000000E+00   0.00000000000000E+00   0.00000000000000E+00   0.00000000000000E+00  -1.08341825106393E-18
     -4.46128165727779E-04  -4.46128165727780E-04   2.95023949898408E-17   0.00000000000000E+00   0.00000000000000E+00
      0.00000000000000E+00   0.00000000000000E+00  -1.40272223932212E-19  -1.83778336341028E-03  -1.83778336341028E-03
     -2.15322552826032E-16   4.31133333333333E-01   4.31133333333333E-01   0.00000000000000E+00   0.00000000000000E+00
      1.64948718299331E-19   2.28391152913805E-03   2.28391152913805E-03  -1.80928076695307E-16   0.00000000000000E+00
      0.00000000000000E+00   0.00000000000000E+00   0.00000000000000E+00   0.00000000000000E+00   0.00000000000000E+00
      0.00000000000000E+00   3.66748234531499E-16
      1.68711111111111E-01
      0.00000000000000E+00   0.00000000000000E+00   0.00000000000000E+00   0.00000000000000E+00  -1.27340842329967E-18
     -5.22440617483689E-04  -5.22440617483690E-04   2.94679373115500E-17   0.00000000000000E+00   0.00000000000000E+00
      0.00000000000000E+00   0.00000000000000E+00  -1.65412601728274E-19  -2.15682939801775E-03  -2.15682939801775E-03
     -1.97437019525019E-16   5.06133333333333E-01   5.06133333333333E-01   0.00000000000000E+00   0.00000000000000E+00
      2.00535083631839E-19   2.67927001550144E-03   2.67927001550144E-03  -1.64437876479749E-16   0.00000000000000E+00
      0.00000000000000E+00   0.00000000000000E+00   0.00000000000000E+00   0.00000000000000E+00   0.00000000000000E+00
      0.00000000000000E+00   3.32406958693218E-16
      1.93711111111111E-01
      0.00000000000000E+00   0.00000000000000E+00   0.00000000000000E+00   0.00000000000000E+00  -1.45683542649813E-18
     -5.98350034679773E-04  -5.98350034679775E-04   2.94337744205141E-17   0.00000000000000E+00   0.00000000000000E+00
      0.00000000000000E+00   0.00000000000000E+00  -1.90512403584628E-19  -2.47567138762178E-03  -2.47567138762178E-03
     -1.79578851434272E-16   5.81133333333333E-01   5.81133333333333E-01   0.00000000000000E+00   0.00000000000000E+00
      2.40051014991560E-19   3.07402142230156E-03   3.07402142230156E-03  -1.47972186752367E-16   0.00000000000000E+00
      0.00000000000000E+00   0.00000000000000E+00   0.00000000000000E+00   0.00000000000000E+00   0.00000000000000E+00
      0.00000000000000E+00   2.98117263766124E-16
      2.18711111111111E-01
      0.00000000000000E+00   0.00000000000000E+00   0.00000000000000E+00   0.00000000000000E+00  -1.63653985000964E-18
     -6.73853990926996E-04  -6.73853990926998E-04   2.93999078333520E-17   0.00000000000000E+00   0.00000000000000E+00
      0.00000000000000E+00   0.00000000000000E+00  -2.15553263266769E-19  -2.79430850811424E-03  -2.79430850811424E-03
     -1.61747154700107E-16   6.56133333333333E-01   6.56133333333333E-01   0.00000000000000E+00   0.00000000000000E+00
      2.83988596976541E-19   3.46816249904124E-03   3.46816249904124E-03  -1.31530242144691E-16   0.00000000000000E+00
      0.00000000000000E+00   0.00000000000000E+00   0.00000000000000E+00   0.00000000000000E+00   0.00000000000000E+00
      0.00000000000000E+00   2.63877489011446E-16
      2.43711111111111E-01
      0.00000000000000E+00   0.00000000000000E+00   0.00000000000000E+00   0.00000000000000E+00  -1.81362068997427E-18
     -7.48951249865723E-04  -7.48951249865725E-04   2.93663382534212E-17   0.00000000000000E+00   0.00000000000000E+00
      0.00000000000000E+00   0.00000000000000E+00  -2.40530043256570E-19  -3.11274076121165E-03  -3.11274076121165E-03
     -1.43940990839935E-16   7.31133333333333E-01   7.31133333333333E-01   0.00000000000000E+00   0.00000000000000E+00
      3.32644780831768E-19   3.86169201107737E-03   3.86169201107737E-03  -1.15111236750623E-16   0.00000000000000E+00
      0.00000000000000E+00   0.00000000000000E+00   0.00000000000000E+00   0.00000000000000E+00   0.00000000000000E+00
      0.00000000000000E+00   2.29685889337138E-16
      2.68711111111111E-01
      0.00000000000000E+00   0.00000000000000E+00   0.00000000000000E+00   0.00000000000000E+00  -1.98847354515406E-18
     -8.23641517445321E-04  -8.23641517445323E-04   2.93330657408809E-17   0.00000000000000E+00   0.00000000000000E+00
      0.00000000000000E+00   0.00000000000000E+00  -2.65444421260171E-19  -3.43096876683826E-03  -3.43096876683826E-03
     -1.26159386522466E-16   8.06133333333333E-01   8.06133333333333E-01   0.00000000000000E+00   0.00000000000000E+00
      3.86151382108312E-19   4.25461028428358E-03   4.25461028428358E-03  -9.87143333314315E-17   0.00000000000000E+00
      0.00000000000000E+00   0.00000000000000E+00   0.00000000000000E+00   0.00000000000000E+00   0.00000000000000E+00
      0.00000000000000E+00   1.95540654113018E-16
      2.93711111111111E-01
      0.00000000000000E+00   0.00000000000000E+00   0.00000000000000E+00   0.00000000000000E+00  -2.16124394045260E-18
     -8.97925243285477E-04  -8.97925243285479E-04   2.93000901531689E-17   0.00000000000000E+00   0.00000000000000E+00
      0.00000000000000E+00   0.00000000000000E+00  -2.90301105575024E-19  -3.74899345993958E-03  -3.74899345993958E-03
     -1.08401362770506E-16   8.81133333333333E-01   8.81133333333333E-01   0.00000000000000E+00   0.00000000000000E+00
      4.44512215319452E-19   4.64691870322506E-03   4.64691870322506E-03  -8.23386591165755E-17   0.00000000000000E+00
      0.00000000000000E+00   0.00000000000000E+00   0.00000000000000E+00   0.00000000000000E+00   0.00000000000000E+00
      0.00000000000000E+00   1.61439931733912E-16
      3.18711111111111E-01
      0.00000000000000E+00   0.00000000000000E+00   0.00000000000000E+00   0.00000000000000E+00  -2.33199567689752E-18
     -9.71803463130069E-04  -9.71803463130072E-04   2.92674128091189E-17   0.00000000000000E+00   0.00000000000000E+00
      0.00000000000000E+00   0.00000000000000E+00  -3.15105694508035E-19  -4.06681502374649E-03  -4.06681502374649E-03
     -9.06660180511596E-17   9.56133333333333E-01   9.56133333333333E-01   0.00000000000000E+00   0.00000000000000E+00
      5.07636700844583E-19   5.03861848687656E-03   5.03861848687656E-03  -6.59832415499284E-17   0.00000000000000E+00
      0.00000000000000E+00   0.00000000000000E+00   0.00000000000000E+00   0.00000000000000E+00   0.00000000000000E+00
      0.00000000000000E+00   1.27381846791971E-16
      3.43711111111111E-01
      0.00000000000000E+00   0.00000000000000E+00   0.00000000000000E+00   0.00000000000000E+00  -2.50076761712869E-18
     -1.04527766113936E-03  -1.04527766113937E-03   2.92350303799924E-17   0.00000000000000E+00   0.00000000000000E+00
      0.00000000000000E+00   0.00000000000000E+00  -3.39863881395722E-19  -4.38443586293750E-03  -4.38443586293750E-03
     -7.29522422561804E-17   1.03113333333333E+00   1.03113333333333E+00   0.00000000000000E+00   0.00000000000000E+00
      5.75367115310956E-19   5.42971352407686E-03   5.42971352407687E-03  -4.96472950521572E-17   0.00000000000000E+00
      0.00000000000000E+00   0.00000000000000E+00   0.00000000000000E+00   0.00000000000000E+00   0.00000000000000E+00
      0.00000000000000E+00   9.33645069283449E-17
      3.68711111111111E-01
      0.00000000000000E+00   0.00000000000000E+00   0.00000000000000E+00   0.00000000000000E+00  -2.66759149125551E-18
     -1.11834964959582E-03  -1.11834964959582E-03   2.92029413849612E-17   0.00000000000000E+00   0.00000000000000E+00
      0.00000000000000E+00   0.00000000000000E+00  -3.64580781527925E-19  -4.70185770682628E-03  -4.70185770682628E-03
     -5.52590360530427E-17   1.10613333333333E+00   1.10613333333333E+00   0.00000000000000E+00   0.00000000000000E+00
      6.47500394470110E-19   5.82020735642210E-03   5.82020735642210E-03  -3.33299730674578E-17   0.00000000000000E+00
      0.00000000000000E+00   0.00000000000000E+00   0.00000000000000E+00   0.00000000000000E+00   0.00000000000000E+00
      0.00000000000000E+00   5.93860677355385E-17
      3.93711111111111E-01
      0.00000000000000E+00   0.00000000000000E+00   0.00000000000000E+00   0.00000000000000E+00  -2.83249713531547E-18
     -1.19102148911219E-03  -1.19102148911220E-03   2.91711441060339E-17   0.00000000000000E+00   0.00000000000000E+00
      0.00000000000000E+00   0.00000000000000E+00  -3.89260824036724E-19  -5.01908205241798E-03  -5.01908205241798E-03
     -3.75854155374663E-17   1.18113333333333E+00   1.18113333333333E+00   0.00000000000000E+00   0.00000000000000E+00
      7.23804656665516E-19   6.21010354153017E-03   6.21010354153017E-03  -1.70304399465272E-17   0.00000000000000E+00
      0.00000000000000E+00   0.00000000000000E+00   0.00000000000000E+00   0.00000000000000E+00   0.00000000000000E+00
      0.00000000000000E+00   2.54447113779600E-17
      4.18711111111111E-01
      0.00000000000000E+00   0.00000000000000E+00   0.00000000000000E+00   0.00000000000000E+00  -2.99551382149999E-18
     -1.26329539711574E-03  -1.26329539711574E-03   2.91396396152245E-17   0.00000000000000E+00   0.00000000000000E+00
      0.00000000000000E+00   0.00000000000000E+00  -4.13907679322122E-19  -5.33610918771373E-03  -5.33610918771373E-03
     -1.99305362368972E-17   1.25613333333333E+00   1.25613333333333E+00   0.00000000000000E+00   0.00000000000000E+00
      8.04031792846463E-19   6.59940458482948E-03   6.59940458482948E-03  -7.47814025045756E-19   0.00000000000000E+00
      0.00000000000000E+00   0.00000000000000E+00   0.00000000000000E+00   0.00000000000000E+00   0.00000000000000E+00
      0.00000000000000E+00  -8.46128935328017E-18
      4.43711111111111E-01
      0.00000000000000E+00   0.00000000000000E+00   0.00000000000000E+00   0.00000000000000E+00  -3.15667065400889E-18
     -1.33517374389391E-03  -1.33517374389391E-03   2.91084252811744E-17   0.00000000000000E+00   0.00000000000000E+00
      0.00000000000000E+00   0.00000000000000E+00  -4.38524423288857E-19  -5.65293946583059E-03  -5.65293946583059E-03
     -2.29348736801921E-18   1.33113333333333E+00   1.33113333333333E+00   0.00000000000000E+00   0.00000000000000E+00
      8.87926484205939E-19   6.98811320972450E-03   6.98811320972450E-03   1.55187890671500E-17   0.00000000000000E+00
      0.00000000000000E+00   0.00000000000000E+00   0.00000000000000E+00   0.00000000000000E+00   0.00000000000000E+00
      0.00000000000000E+00  -4.23337269803058E-17
      4.68711111111111E-01
      0.00000000000000E+00   0.00000000000000E+00   0.00000000000000E+00   0.00000000000000E+00  -3.31599632560402E-18
     -1.40665890361455E-03  -1.40665890361455E-03   2.90774976420111E-17   0.00000000000000E+00   0.00000000000000E+00
      0.00000000000000E+00   0.00000000000000E+00  -4.63113770473157E-19  -5.96957522481130E-03  -5.96957522481130E-03
      1.53267014152995E-17   1.40613333333333E+00   1.40613333333333E+00   0.00000000000000E+00   0.00000000000000E+00
      9.75232712942556E-19   7.37623412842585E-03   7.37623412842585E-03   3.17699947677816E-17   0.00000000000000E+00
      0.00000000000000E+00   0.00000000000000E+00   0.00000000000000E+00   0.00000000000000E+00   0.00000000000000E+00
      0.00000000000000E+00  -7.61741938250922E-17
      4.93711111111111E-01
      0.00000000000000E+00   0.00000000000000E+00   0.00000000000000E+00   0.00000000000000E+00  -3.47351920431326E-18
     -1.47775328747942E-03  -1.47775328747942E-03   2.90468550134314E-17   0.00000000000000E+00   0.00000000000000E+00
      0.00000000000000E+00   0.00000000000000E+00  -4.87677862311178E-19  -6.28601698183544E-03  -6.28601698183544E-03
      3.29308508763782E-17   1.48113333333333E+00   1.48113333333333E+00   0.00000000000000E+00   0.00000000000000E+00
      1.06569881329201E-18   7.76377026931485E-03   7.76377026931485E-03   4.80065290521055E-17   0.00000000000000E+00
      0.00000000000000E+00   0.00000000000000E+00   0.00000000000000E+00   0.00000000000000E+00   0.00000000000000E+00
      0.00000000000000E+00  -1.09984234941915E-16
      5.18711111111111E-01
      0.00000000000000E+00   0.00000000000000E+00   0.00000000000000E+00   0.00000000000000E+00  -3.62926722523702E-18
     -1.54845929750202E-03  -1.54845929750202E-03   2.90164956016499E-17   0.00000000000000E+00   0.00000000000000E+00
      0.00000000000000E+00   0.00000000000000E+00  -5.12218462095382E-19  -6.60226497377032E-03  -6.60226497377032E-03
      5.05197453939234E-17   1.55613333333333E+00   1.55613333333333E+00   0.00000000000000E+00   0.00000000000000E+00
      1.15908054707274E-18   8.15072427127234E-03   8.15072427127234E-03   6.42290762801464E-17   0.00000000000000E+00
      0.00000000000000E+00   0.00000000000000E+00   0.00000000000000E+00   0.00000000000000E+00   0.00000000000000E+00
      0.00000000000000E+00  -1.43765317275721E-16
      5.43711111111111E-01
      0.00000000000000E+00   0.00000000000000E+00   0.00000000000000E+00   0.00000000000000E+00  -3.78326783340636E-18
     -1.61877930317111E-03  -1.61877930317112E-03   2.89864175912004E-17   0.00000000000000E+00   0.00000000000000E+00
      0.00000000000000E+00   0.00000000000000E+00  -5.36737020724214E-19  -6.91831917809904E-03  -6.91831917809904E-03
      6.80941244533114E-17   1.63113333333333E+00   1.63113333333333E+00   0.00000000000000E+00   0.00000000000000E+00
      1.25514321024488E-18   8.53709848127016E-03   8.53709848127016E-03   8.04382787266930E-17   0.00000000000000E+00
      0.00000000000000E+00   0.00000000000000E+00   0.00000000000000E+00   0.00000000000000E+00   0.00000000000000E+00
      0.00000000000000E+00  -1.77518820771204E-16
      5.68711111111111E-01
      0.00000000000000E+00   0.00000000000000E+00   0.00000000000000E+00   0.00000000000000E+00  -3.93554794636623E-18
     -1.68871562569200E-03  -1.68871562569200E-03   2.89566191841095E-17   0.00000000000000E+00   0.00000000000000E+00
      0.00000000000000E+00   0.00000000000000E+00  -5.61234729289130E-19  -7.23417930488967E-03  -7.23417930488967E-03
      8.56546811350209E-17   1.70613333333333E+00   1.70613333333333E+00   0.00000000000000E+00   0.00000000000000E+00
      1.35366296428906E-18   8.92289493058167E-03   8.92289493058167E-03   9.66347365466290E-17   0.00000000000000E+00
      0.00000000000000E+00   0.00000000000000E+00   0.00000000000000E+00   0.00000000000000E+00   0.00000000000000E+00
      0.00000000000000E+00  -2.11246036865762E-16
      5.93711111111111E-01
      0.00000000000000E+00   0.00000000000000E+00   0.00000000000000E+00   0.00000000000000E+00  -4.08613393183206E-18
     -1.75827052772867E-03  -1.75827052772867E-03   2.89270986006592E-17   0.00000000000000E+00   0.00000000000000E+00
      0.00000000000000E+00   0.00000000000000E+00  -5.85712563889344E-19  -7.54984481398160E-03  -7.54984481398161E-03
      1.03202062424599E-16   1.78113333333333E+00   1.78113333333333E+00   0.00000000000000E+00   0.00000000000000E+00
      1.45442754676839E-18   9.30811534171027E-03   9.30811534171028E-03   1.12819008988636E-16   0.00000000000000E+00
      0.00000000000000E+00   0.00000000000000E+00   0.00000000000000E+00   0.00000000000000E+00   0.00000000000000E+00
      0.00000000000000E+00  -2.44948170013894E-16
      6.18711111111111E-01
      0.00000000000000E+00   0.00000000000000E+00   0.00000000000000E+00   0.00000000000000E+00  -4.23505159604159E-18
     -1.82744620694296E-03  -1.82744620694296E-03   2.88978540979080E-17   0.00000000000000E+00   0.00000000000000E+00
      0.00000000000000E+00   0.00000000000000E+00  -6.10171321971555E-19  -7.86531492920112E-03  -7.86531492920113E-03
      1.20736869668225E-16   1.85613333333333E+00   1.85613333333333E+00   0.00000000000000E+00   0.00000000000000E+00
      1.55723657497720E-18   9.69276113614408E-03   9.69276113614409E-03   1.28991614832217E-16   0.00000000000000E+00
      0.00000000000000E+00   0.00000000000000E+00   0.00000000000000E+00   0.00000000000000E+00   0.00000000000000E+00
      0.00000000000000E+00  -2.78626338598352E-16
      6.43711111111111E-01
      0.00000000000000E+00   0.00000000000000E+00   0.00000000000000E+00   0.00000000000000E+00  -4.38232618161315E-18
     -1.89624479308479E-03  -1.89624479308479E-03   2.88688839731681E-17   0.00000000000000E+00   0.00000000000000E+00
      0.00000000000000E+00   0.00000000000000E+00  -6.34611652283901E-19  -8.18058865786346E-03  -8.18058865786346E-03
      1.38259659952919E-16   1.93113333333333E+00   1.93113333333333E+00   0.00000000000000E+00   0.00000000000000E+00
      1.66190154819277E-18   1.00768334509482E-02   1.00768334509483E-02   1.45153033761504E-16   0.00000000000000E+00
      0.00000000000000E+00   0.00000000000000E+00   0.00000000000000E+00   0.00000000000000E+00   0.00000000000000E+00
      0.00000000000000E+00  -3.12281577687588E-16
      6.68711111111111E-01
      0.00000000000000E+00   0.00000000000000E+00   0.00000000000000E+00   0.00000000000000E+00  -4.52798237184726E-18
     -1.96466834747368E-03  -1.96466834747368E-03   2.88401865655333E-17   0.00000000000000E+00   0.00000000000000E+00
      0.00000000000000E+00   0.00000000000000E+00  -6.59034079657613E-19  -8.49566481477261E-03  -8.49566481477261E-03
      1.55770947736811E-16   2.00613333333333E+00   2.00613333333333E+00   0.00000000000000E+00   0.00000000000000E+00
      1.76824564107376E-18   1.04603331622463E-02   1.04603331622463E-02   1.61303707961722E-16   0.00000000000000E+00
      0.00000000000000E+00   0.00000000000000E+00   0.00000000000000E+00   0.00000000000000E+00   0.00000000000000E+00
      0.00000000000000E+00  -3.45914842264067E-16
      6.93711111111111E-01
      0.00000000000000E+00   0.00000000000000E+00   0.00000000000000E+00   0.00000000000000E+00  -4.67204430029182E-18
     -2.03271886452403E-03  -2.03271886452404E-03   2.88117602564095E-17   0.00000000000000E+00   0.00000000000000E+00
      0.00000000000000E+00   0.00000000000000E+00  -6.83439025290766E-19  -8.81054204534320E-03  -8.81054204534320E-03
      1.73271206795347E-16   2.08113333333333E+00   2.08113333333333E+00   0.00000000000000E+00   0.00000000000000E+00
      1.87610335526235E-18   1.08432609098672E-02   1.08432609098672E-02   1.77444043917806E-16   0.00000000000000E+00
      0.00000000000000E+00   0.00000000000000E+00   0.00000000000000E+00   0.00000000000000E+00   0.00000000000000E+00
      0.00000000000000E+00  -3.79527010969564E-16
      7.18711111111111E-01
      0.00000000000000E+00   0.00000000000000E+00   0.00000000000000E+00   0.00000000000000E+00  -4.81453556371077E-18
     -2.10039827460093E-03  -2.10039827460094E-03   2.87836034689569E-17   0.00000000000000E+00   0.00000000000000E+00
      0.00000000000000E+00   0.00000000000000E+00  -7.07826823488995E-19  -9.12521884887178E-03  -9.12521884887178E-03
      1.90760872341940E-16   2.15613333333333E+00   2.15613333333333E+00   0.00000000000000E+00   0.00000000000000E+00
      1.98532009436614E-18   1.12256171234727E-02   1.12256171234727E-02   1.93574414327275E-16   0.00000000000000E+00
      0.00000000000000E+00   0.00000000000000E+00   0.00000000000000E+00   0.00000000000000E+00   0.00000000000000E+00
      0.00000000000000E+00  -4.13118890138171E-16
      7.43711111111111E-01
      0.00000000000000E+00   0.00000000000000E+00   0.00000000000000E+00   0.00000000000000E+00  -4.95547923738760E-18
     -2.16770844781615E-03  -2.16770844781615E-03   2.87557146674775E-17   0.00000000000000E+00   0.00000000000000E+00
      0.00000000000000E+00   0.00000000000000E+00  -7.32197735572695E-19  -9.43969360181230E-03  -9.43969360181230E-03
      2.08240343132130E-16   2.23113333333333E+00   2.23113333333333E+00   0.00000000000000E+00   0.00000000000000E+00
      2.09575165759186E-18   1.16074020496284E-02   1.16074020496284E-02   2.09695160039920E-16   0.00000000000000E+00
      0.00000000000000E+00   0.00000000000000E+00   0.00000000000000E+00   0.00000000000000E+00   0.00000000000000E+00
      0.00000000000000E+00  -4.46691217839525E-16
      7.68711111111111E-01
      0.00000000000000E+00   0.00000000000000E+00   0.00000000000000E+00   0.00000000000000E+00  -5.09489789209759E-18
     -2.23465119854215E-03  -2.23465119854216E-03   2.87280923550880E-17   0.00000000000000E+00   0.00000000000000E+00
      0.00000000000000E+00   0.00000000000000E+00  -7.56551961315767E-19  -9.75396457840057E-03  -9.75396457840057E-03
      2.25709983763295E-16   2.30613333333333E+00   2.30613333333333E+00   0.00000000000000E+00   0.00000000000000E+00
      2.20726371505777E-18   1.19886157769427E-02   1.19886157769427E-02   2.25806592101878E-16   0.00000000000000E+00
      0.00000000000000E+00   0.00000000000000E+00   0.00000000000000E+00   0.00000000000000E+00   0.00000000000000E+00
      0.00000000000000E+00  -4.80244668220263E-16
      7.93711111111111E-01
      0.00000000000000E+00   0.00000000000000E+00   0.00000000000000E+00   0.00000000000000E+00  -5.23281361180086E-18
     -2.30122829025409E-03  -2.30122829025409E-03   2.87007350708138E-17   0.00000000000000E+00   0.00000000000000E+00
      0.00000000000000E+00   0.00000000000000E+00  -7.80889648458767E-19  -1.00680299697141E-02  -1.00680299697141E-02
      2.43170126941874E-16   2.38113333333333E+00   2.38113333333333E+00   0.00000000000000E+00   0.00000000000000E+00
      2.31973126738316E-18   1.23692582599682E-02   1.23692582599682E-02   2.41908993777809E-16   0.00000000000000E+00
      0.00000000000000E+00   0.00000000000000E+00   0.00000000000000E+00   0.00000000000000E+00   0.00000000000000E+00
      0.00000000000000E+00  -5.13779855790494E-16
      8.18711111111112E-01
      0.00000000000000E+00   0.00000000000000E+00   0.00000000000000E+00   0.00000000000000E+00  -5.36924801156850E-18
     -2.36744144051186E-03  -2.36744144051186E-03   2.86736413874328E-17   0.00000000000000E+00   0.00000000000000E+00
      0.00000000000000E+00   0.00000000000000E+00  -8.05210900703762E-19  -1.03818879018158E-02  -1.03818879018158E-02
      2.60621075648824E-16   2.45613333333333E+00   2.45613333333333E+00   0.00000000000000E+00   0.00000000000000E+00
      2.43303810454734E-18   1.27493293423277E-02   1.27493293423277E-02   2.58002622488496E-16   0.00000000000000E+00
      0.00000000000000E+00   0.00000000000000E+00   0.00000000000000E+00   0.00000000000000E+00   0.00000000000000E+00
      0.00000000000000E+00  -5.47297339524753E-16
      8.43711111111112E-01
      0.00000000000000E+00   0.00000000000000E+00   0.00000000000000E+00   0.00000000000000E+00  -5.50422225545197E-18
     -2.43329232597648E-03  -2.43329232597649E-03   2.86468099085596E-17   0.00000000000000E+00   0.00000000000000E+00
      0.00000000000000E+00   0.00000000000000E+00  -8.29515784352662E-19  -1.06955364513421E-02  -1.06955364513421E-02
      2.78063105280514E-16   2.53113333333333E+00   2.53113333333333E+00   0.00000000000000E+00   0.00000000000000E+00
      2.54707627295240E-18   1.31288287773186E-02   1.31288287773186E-02   2.74087711716455E-16   0.00000000000000E+00
      0.00000000000000E+00   0.00000000000000E+00   0.00000000000000E+00   0.00000000000000E+00   0.00000000000000E+00
      0.00000000000000E+00  -5.80797626905529E-16
      8.68711111111112E-01
      0.00000000000000E+00   0.00000000000000E+00   0.00000000000000E+00   0.00000000000000E+00  -5.63775707391209E-18