DF-ISE text

Info {
  version   = 1.0
  type      = xyplot
  datasets  = [
    "time"
    "substrate OuterVoltage" "substrate InnerVoltage" "substrate QuasiFermiPotential" "substrate DisplacementCurrent" "substrate eCurrent"
    "substrate hCurrent" "substrate TotalCurrent" "substrate Charge" "source OuterVoltage" "source InnerVoltage"
    "source QuasiFermiPotential" "source DisplacementCurrent" "source eCurrent" "source hCurrent" "source TotalCurrent"
    "source Charge" "drain OuterVoltage" "drain InnerVoltage" "drain QuasiFermiPotential" "drain DisplacementCurrent"
    "drain eCurrent" "drain hCurrent" "drain TotalCurrent" "drain Charge" "gate OuterVoltage"
    "gate InnerVoltage" "gate QuasiFermiPotential" "gate DisplacementCurrent" "gate eCurrent" "gate hCurrent"
    "gate TotalCurrent" "gate Charge" ]
  functions = [
    Time
    OuterVoltage InnerVoltage QuasiFermiPotential DisplacementCurrent eCurrent
    hCurrent TotalCurrent Charge OuterVoltage InnerVoltage
    QuasiFermiPotential DisplacementCurrent eCurrent hCurrent TotalCurrent
    Charge OuterVoltage InnerVoltage QuasiFermiPotential DisplacementCurrent
    eCurrent hCurrent TotalCurrent Charge OuterVoltage
    InnerVoltage QuasiFermiPotential DisplacementCurrent eCurrent hCurrent
    TotalCurrent Charge ]
}

Data {
      0.00000000000000E+00
      0.00000000000000E+00   0.00000000000000E+00   0.00000000000000E+00   0.00000000000000E+00   3.00545105468553E-31
      7.07557209541665E-28   7.07857754647134E-28  -1.21521391024804E-14   0.00000000000000E+00   0.00000000000000E+00
      0.00000000000000E+00   0.00000000000000E+00  -7.70811905756600E-32  -3.05875602479331E-28  -3.05952683669907E-28
      4.29566988752078E-15   0.00000000000000E+00   0.00000000000000E+00   0.00000000000000E+00   0.00000000000000E+00
     -9.38272477288393E-32  -4.01811243729498E-28  -4.01905070977226E-28   4.29566988752078E-15   3.00000000000000E+00
      3.00000000000000E+00   0.00000000000000E+00   0.00000000000000E+00   0.00000000000000E+00   0.00000000000000E+00
      0.00000000000000E+00   3.56079932743883E-15
      1.00000000000000E-02
      0.00000000000000E+00   0.00000000000000E+00   0.00000000000000E+00   0.00000000000000E+00  -2.06952428204901E-20
     -8.10347263403899E-17  -8.10554215832104E-17  -1.22839911296835E-14   0.00000000000000E+00   0.00000000000000E+00
      0.00000000000000E+00   0.00000000000000E+00  -6.80947162212716E-21  -8.72713608218073E-29  -6.80947170939852E-21
      4.29566988752061E-15   3.00000000000000E-02   3.00000000000000E-02   0.00000000000000E+00   0.00000000000000E+00
      8.10734535205431E-17  -1.12224656233297E-20   8.10622310549197E-17   4.42821677115271E-15   3.00000000000000E+00
      3.00000000000000E+00   0.00000000000000E+00   0.00000000000000E+00   0.00000000000000E+00   0.00000000000000E+00
      0.00000000000000E+00   3.56010447101023E-15
      2.36666666666667E-02
      0.00000000000000E+00   0.00000000000000E+00   0.00000000000000E+00   0.00000000000000E+00  -2.77369768115996E-20
     -2.26010550997966E-16  -2.26038287974778E-16  -1.24634020135981E-14   0.00000000000000E+00   0.00000000000000E+00
      0.00000000000000E+00   0.00000000000000E+00  -9.12062800427360E-21   4.76736998615437E-28  -9.12062752753660E-21
      4.29566988752032E-15   7.10000000000000E-02   7.10000000000000E-02   0.00000000000000E+00   0.00000000000000E+00
      2.26034297453933E-16   1.31111483727343E-20   2.26047408602305E-16   4.60857722893339E-15   3.00000000000000E+00
      3.00000000000000E+00   0.00000000000000E+00   0.00000000000000E+00   0.00000000000000E+00   0.00000000000000E+00
      0.00000000000000E+00   3.55915489714443E-15
      4.37111111111111E-02
      0.00000000000000E+00   0.00000000000000E+00   0.00000000000000E+00   0.00000000000000E+00  -2.87740113263807E-20
     -6.73465218970659E-16  -6.73493992981985E-16  -1.27244390022852E-14   0.00000000000000E+00   0.00000000000000E+00
      0.00000000000000E+00   0.00000000000000E+00  -9.44753851470529E-21   6.22897420648873E-29  -9.44753845241555E-21
      4.29566988751941E-15   1.31133333333333E-01   1.31133333333333E-01   0.00000000000000E+00   0.00000000000000E+00
      6.73479859076823E-16   2.35814436141182E-20   6.73503440520437E-16   4.87100678989860E-15   3.00000000000000E+00
      3.00000000000000E+00   0.00000000000000E+00   0.00000000000000E+00   0.00000000000000E+00   0.00000000000000E+00
      0.00000000000000E+00   3.55776232486717E-15
      6.87111111111111E-02
      0.00000000000000E+00   0.00000000000000E+00   0.00000000000000E+00   0.00000000000000E+00  -2.85695041323245E-20
     -2.24874358547247E-15  -2.24877215497660E-15  -1.30452753919529E-14   0.00000000000000E+00   0.00000000000000E+00
      0.00000000000000E+00   0.00000000000000E+00  -9.37922489731808E-21  -2.03671798784840E-28  -9.37922510098988E-21
      4.29566988751621E-15   2.06133333333333E-01   2.06133333333333E-01   0.00000000000000E+00   0.00000000000000E+00
      2.24875807734091E-15   2.34568607895332E-20   2.24878153420170E-15   5.19357979947741E-15   3.00000000000000E+00
      3.00000000000000E+00   0.00000000000000E+00   0.00000000000000E+00   0.00000000000000E+00   0.00000000000000E+00
      0.00000000000000E+00   3.55602570495926E-15
      9.37111111111111E-02
      0.00000000000000E+00   0.00000000000000E+00   0.00000000000000E+00   0.00000000000000E+00  -2.85717986686681E-20
     -5.82410032905515E-15  -5.82412890085382E-15  -1.33597134354908E-14   0.00000000000000E+00   0.00000000000000E+00
      0.00000000000000E+00   0.00000000000000E+00  -9.37568371972899E-21  -2.06136021498101E-29  -9.37568374034259E-21
      4.29566988750893E-15   2.81133333333333E-01   2.81133333333333E-01   0.00000000000000E+00   0.00000000000000E+00
      5.82411465697362E-15   2.36195639348218E-20   5.82413827653756E-15   5.50975418887699E-15   3.00000000000000E+00
      3.00000000000000E+00   0.00000000000000E+00   0.00000000000000E+00   0.00000000000000E+00   0.00000000000000E+00
      0.00000000000000E+00   3.55428935910485E-15
      1.18711111111111E-01
      0.00000000000000E+00   0.00000000000000E+00   0.00000000000000E+00   0.00000000000000E+00  -2.85965615822473E-20
     -1.00467054547657E-14  -1.00467340513273E-14  -1.36686924292366E-14   0.00000000000000E+00   0.00000000000000E+00
      0.00000000000000E+00   0.00000000000000E+00  -9.38087713393444E-21   7.03583242094697E-28  -9.38087643035120E-21
      4.29566988750035E-15   3.56133333333333E-01   3.56133333333333E-01   0.00000000000000E+00   0.00000000000000E+00
      1.00467196674945E-14   2.37647091959462E-20   1.00467434322037E-14   5.82046924067599E-15   3.00000000000000E+00
      3.00000000000000E+00   0.00000000000000E+00   0.00000000000000E+00   0.00000000000000E+00   0.00000000000000E+00
      0.00000000000000E+00   3.55255330106031E-15
      1.43711111111111E-01
      0.00000000000000E+00   0.00000000000000E+00   0.00000000000000E+00   0.00000000000000E+00  -2.86156577316069E-20
     -1.24456134469990E-14  -1.24456420626568E-14  -1.39742817683522E-14   0.00000000000000E+00   0.00000000000000E+00
      0.00000000000000E+00   0.00000000000000E+00  -9.38516983625770E-21   4.48324721218670E-28  -9.38516938793298E-21
      4.29566988749547E-15   4.31133333333333E-01   4.31133333333333E-01   0.00000000000000E+00   0.00000000000000E+00
      1.24456275503636E-14   2.38974625946139E-20   1.24456514478262E-14   6.12779433571075E-15   3.00000000000000E+00
      3.00000000000000E+00   0.00000000000000E+00   0.00000000000000E+00   0.00000000000000E+00   0.00000000000000E+00
      0.00000000000000E+00   3.55081754514603E-15
      1.68711111111111E-01
      0.00000000000000E+00   0.00000000000000E+00   0.00000000000000E+00   0.00000000000000E+00  -2.86319799373505E-20
     -1.33682071799785E-14  -1.33682358119584E-14  -1.42773529137259E-14   0.00000000000000E+00   0.00000000000000E+00
      0.00000000000000E+00   0.00000000000000E+00  -9.38920649554404E-21   4.54563846632417E-28  -9.38920604098019E-21
      4.29566988749360E-15   5.06133333333333E-01   5.06133333333333E-01   0.00000000000000E+00   0.00000000000000E+00
      1.33682211802834E-14   2.40208810531117E-20   1.33682452011645E-14   6.43260091997666E-15   3.00000000000000E+00
      3.00000000000000E+00   0.00000000000000E+00   0.00000000000000E+00   0.00000000000000E+00   0.00000000000000E+00
      0.00000000000000E+00   3.54908210625571E-15
      1.93711111111111E-01
      0.00000000000000E+00   0.00000000000000E+00   0.00000000000000E+00   0.00000000000000E+00  -2.86482643706391E-20
     -1.39837909433227E-14  -1.39838195915870E-14  -1.45775109713382E-14   0.00000000000000E+00   0.00000000000000E+00
      0.00000000000000E+00   0.00000000000000E+00  -9.39376268078521E-21   3.27142475136462E-28  -9.39376235364273E-21
      4.29566988749236E-15   5.81133333333333E-01   5.81133333333333E-01   0.00000000000000E+00   0.00000000000000E+00
      1.39838048449586E-14   2.41403907453650E-20   1.39838289853494E-14   6.73449408397972E-15   3.00000000000000E+00
      3.00000000000000E+00   0.00000000000000E+00   0.00000000000000E+00   0.00000000000000E+00   0.00000000000000E+00
      0.00000000000000E+00   3.54734699986612E-15
      2.18711111111111E-01
      0.00000000000000E+00   0.00000000000000E+00   0.00000000000000E+00   0.00000000000000E+00  -2.86657351323674E-20
     -1.55275303854934E-14  -1.55275590512285E-14  -1.48737689160209E-14   0.00000000000000E+00   0.00000000000000E+00
      0.00000000000000E+00   0.00000000000000E+00  -9.39916138491624E-21  -6.79840013526211E-28  -9.39916206475625E-21
      4.29566988748927E-15   6.56133333333333E-01   6.56133333333333E-01   0.00000000000000E+00   0.00000000000000E+00
      1.55275441895694E-14   2.42608212357518E-20   1.55275684503906E-14   7.03248678648846E-15   3.00000000000000E+00
      3.00000000000000E+00   0.00000000000000E+00   0.00000000000000E+00   0.00000000000000E+00   0.00000000000000E+00
      0.00000000000000E+00   3.54561224204321E-15
      2.43711111111111E-01
      0.00000000000000E+00   0.00000000000000E+00   0.00000000000000E+00   0.00000000000000E+00  -2.86831732135881E-20
     -2.10671501439060E-14  -2.10671788270792E-14  -1.51656181183364E-14   0.00000000000000E+00   0.00000000000000E+00
      0.00000000000000E+00   0.00000000000000E+00  -9.40485471628479E-21  -3.78465904439368E-28  -9.40485509475069E-21
      4.29566988747819E-15   7.31133333333333E-01   7.31133333333333E-01   0.00000000000000E+00   0.00000000000000E+00
      2.10671638452896E-14   2.43866446874473E-20   2.10671882319343E-14   7.32607038141495E-15   3.00000000000000E+00
      3.00000000000000E+00   0.00000000000000E+00   0.00000000000000E+00   0.00000000000000E+00   0.00000000000000E+00
      0.00000000000000E+00   3.54387784944324E-15
      2.68711111111111E-01
      0.00000000000000E+00   0.00000000000000E+00   0.00000000000000E+00   0.00000000000000E+00  -2.86986138809923E-20
     -3.86048060389059E-14  -3.86048347375198E-14  -1.54532301414945E-14   0.00000000000000E+00   0.00000000000000E+00
      0.00000000000000E+00   0.00000000000000E+00  -9.41000282300797E-21  -3.51508351815610E-28  -9.41000317451633E-21
      4.29566988744313E-15   8.06133333333333E-01   8.06133333333333E-01   0.00000000000000E+00   0.00000000000000E+00
      3.86048196249739E-14   2.45225490945864E-20   3.86048441475230E-14   7.61541641474296E-15   3.00000000000000E+00
      3.00000000000000E+00   0.00000000000000E+00   0.00000000000000E+00   0.00000000000000E+00   0.00000000000000E+00
      0.00000000000000E+00   3.54214383930841E-15
      2.93711111111111E-01
      0.00000000000000E+00   0.00000000000000E+00   0.00000000000000E+00   0.00000000000000E+00  -2.87115991063732E-20
     -7.43351402735360E-14  -7.43351689851351E-14  -1.57359014173480E-14   0.00000000000000E+00   0.00000000000000E+00
      0.00000000000000E+00   0.00000000000000E+00  -9.41441698696294E-21   6.59253476937718E-28  -9.41441632770946E-21
      4.29566988737169E-15   8.81133333333333E-01   8.81133333333333E-01   0.00000000000000E+00   0.00000000000000E+00
      7.43351537267162E-14   2.46728352987082E-20   7.43351783995515E-14   7.89982130051538E-15   3.00000000000000E+00
      3.00000000000000E+00   0.00000000000000E+00   0.00000000000000E+00   0.00000000000000E+00   0.00000000000000E+00
      0.00000000000000E+00   3.54041022946101E-15
      3.18711111111111E-01
      0.00000000000000E+00   0.00000000000000E+00   0.00000000000000E+00   0.00000000000000E+00  -2.87226170681074E-20
     -1.08400221619789E-13  -1.08400250342406E-13  -1.60115866297016E-14   0.00000000000000E+00   0.00000000000000E+00
      0.00000000000000E+00   0.00000000000000E+00  -9.41821101951234E-21   2.81670334701949E-28  -9.41821073784201E-21
      4.29566988730358E-15   9.56133333333333E-01   9.56133333333333E-01   0.00000000000000E+00   0.00000000000000E+00
      1.08400234923203E-13   2.48374137628755E-20   1.08400259760617E-13   8.17723970409991E-15   3.00000000000000E+00
      3.00000000000000E+00   0.00000000000000E+00   0.00000000000000E+00   0.00000000000000E+00   0.00000000000000E+00
      0.00000000000000E+00   3.53867703829811E-15
      3.43711111111111E-01
      0.00000000000000E+00   0.00000000000000E+00   0.00000000000000E+00   0.00000000000000E+00  -2.87320291904327E-20
     -1.24065440002700E-13  -1.24065468734729E-13  -1.62783865371935E-14   0.00000000000000E+00   0.00000000000000E+00
      0.00000000000000E+00   0.00000000000000E+00  -9.42145930564428E-21  -1.66148264257732E-28  -9.42145947179254E-21
      4.29566988727226E-15   1.03113333333333E+00   1.03113333333333E+00   0.00000000000000E+00   0.00000000000000E+00
      1.24065453149824E-13   2.50063651290346E-20   1.24065478156189E-13   8.44577236516794E-15   3.00000000000000E+00
      3.00000000000000E+00   0.00000000000000E+00   0.00000000000000E+00   0.00000000000000E+00   0.00000000000000E+00
      0.00000000000000E+00   3.53694428475329E-15
      3.68711111111111E-01
      0.00000000000000E+00   0.00000000000000E+00   0.00000000000000E+00   0.00000000000000E+00  -2.87400433230556E-20
     -1.29327650323243E-13  -1.29327679063286E-13  -1.65375861985561E-14   0.00000000000000E+00   0.00000000000000E+00
      0.00000000000000E+00   0.00000000000000E+00  -9.42421950664030E-21   2.26556220760376E-28  -9.42421928008408E-21
      4.29566988726173E-15   1.10613333333333E+00   1.10613333333333E+00   0.00000000000000E+00   0.00000000000000E+00
      1.29327663326921E-13   2.51605843623173E-20   1.29327688487505E-13   8.70670432304307E-15   3.00000000000000E+00
      3.00000000000000E+00   0.00000000000000E+00   0.00000000000000E+00   0.00000000000000E+00   0.00000000000000E+00
      0.00000000000000E+00   3.53521198825135E-15
      3.93711111111111E-01
      0.00000000000000E+00   0.00000000000000E+00   0.00000000000000E+00   0.00000000000000E+00  -2.87466390137601E-20
     -1.32717160890482E-13  -1.32717189637121E-13  -1.67928251537690E-14   0.00000000000000E+00   0.00000000000000E+00
      0.00000000000000E+00   0.00000000000000E+00  -9.42647133168048E-21  -2.78295844674400E-28  -9.42647160997633E-21
      4.29566988725490E-15   1.18113333333333E+00   1.18113333333333E+00   0.00000000000000E+00   0.00000000000000E+00
      1.32717173774290E-13   2.52893026446781E-20   1.32717199063593E-13   8.96367509784217E-15   3.00000000000000E+00
      3.00000000000000E+00   0.00000000000000E+00   0.00000000000000E+00   0.00000000000000E+00   0.00000000000000E+00
      0.00000000000000E+00   3.53348016867193E-15
      4.18711111111111E-01
      0.00000000000000E+00   0.00000000000000E+00   0.00000000000000E+00   0.00000000000000E+00  -2.87587012192522E-20
     -1.39934494667572E-13  -1.39934523426273E-13  -1.70464327892891E-14   0.00000000000000E+00   0.00000000000000E+00
      0.00000000000000E+00   0.00000000000000E+00  -9.42793010082746E-21  -1.02070335507818E-28  -9.42793020289779E-21
      4.29566988724030E-15   1.25613333333333E+00   1.25613333333333E+00   0.00000000000000E+00   0.00000000000000E+00
      1.39934507545141E-13   2.53090618873406E-20   1.39934532854203E-13   9.21901405575888E-15   3.00000000000000E+00
      3.00000000000000E+00   0.00000000000000E+00   0.00000000000000E+00   0.00000000000000E+00   0.00000000000000E+00
      0.00000000000000E+00   3.53174884628997E-15
      4.43711111111111E-01
      0.00000000000000E+00   0.00000000000000E+00   0.00000000000000E+00   0.00000000000000E+00  -2.90045921208085E-20
     -1.52096176802594E-13  -1.52096205807186E-13  -1.72991695836447E-14   0.00000000000000E+00   0.00000000000000E+00
      0.00000000000000E+00   0.00000000000000E+00  -9.42805710754055E-21  -3.24840536549376E-28  -9.42805743238109E-21
      4.29566988721570E-15   1.33113333333333E+00   1.33113333333333E+00   0.00000000000000E+00   0.00000000000000E+00
      1.52096189751789E-13   2.54834546833165E-20   1.52096215235244E-13   9.47348165472882E-15   3.00000000000000E+00
      3.00000000000000E+00   0.00000000000000E+00   0.00000000000000E+00   0.00000000000000E+00   0.00000000000000E+00
      0.00000000000000E+00   3.53001804170019E-15
      4.68711111111111E-01
      0.00000000000000E+00   0.00000000000000E+00   0.00000000000000E+00   0.00000000000000E+00  -2.90832881084046E-20
     -1.62095772122976E-13  -1.62095801206264E-13  -1.75511539714324E-14   0.00000000000000E+00   0.00000000000000E+00
      0.00000000000000E+00   0.00000000000000E+00  -9.42700112359216E-21   5.43711933612276E-29  -9.42700106922097E-21
      4.29566988719550E-15   1.40613333333333E+00   1.40613333333333E+00   0.00000000000000E+00   0.00000000000000E+00
      1.62095785068657E-13   2.55646083339444E-20   1.62095810633265E-13   9.72719630851104E-15   3.00000000000000E+00
      3.00000000000000E+00   0.00000000000000E+00   0.00000000000000E+00   0.00000000000000E+00   0.00000000000000E+00
      0.00000000000000E+00   3.52828777572586E-15
      4.93711111111111E-01
      0.00000000000000E+00   0.00000000000000E+00   0.00000000000000E+00   0.00000000000000E+00  -2.87678802566780E-20
     -1.72798889399310E-13  -1.72798918167190E-13  -1.78022861259233E-14   0.00000000000000E+00   0.00000000000000E+00
      0.00000000000000E+00   0.00000000000000E+00  -9.42561293762835E-21   3.28684377139417E-28  -9.42561260894398E-21
      4.29566988717400E-15   1.48113333333333E+00   1.48113333333333E+00   0.00000000000000E+00   0.00000000000000E+00
      1.72798901955247E-13   2.56375554071857E-20   1.72798927592802E-13   9.98005816944966E-15   3.00000000000000E+00
      3.00000000000000E+00   0.00000000000000E+00   0.00000000000000E+00   0.00000000000000E+00   0.00000000000000E+00
      0.00000000000000E+00   3.52655806929967E-15
      5.18711111111111E-01
      0.00000000000000E+00   0.00000000000000E+00   0.00000000000000E+00   0.00000000000000E+00  -2.87452699536365E-20
     -1.99786251731623E-13  -1.99786280476893E-13  -1.80523552613619E-14   0.00000000000000E+00   0.00000000000000E+00
      0.00000000000000E+00   0.00000000000000E+00  -9.42438255915520E-21   2.57600234821997E-28  -9.42438230155496E-21
      4.29566988711992E-15   1.55613333333333E+00   1.55613333333333E+00   0.00000000000000E+00   0.00000000000000E+00
      1.99786264194997E-13   2.57062782116066E-20   1.99786289901275E-13   1.02318564309084E-14   3.00000000000000E+00
      3.00000000000000E+00   0.00000000000000E+00   0.00000000000000E+00   0.00000000000000E+00   0.00000000000000E+00
      0.00000000000000E+00   3.52482894333360E-15
      5.43711111111111E-01
      0.00000000000000E+00   0.00000000000000E+00   0.00000000000000E+00   0.00000000000000E+00  -2.87432854566842E-20
     -2.57329858221659E-13  -2.57329886964944E-13  -1.83010352179760E-14   0.00000000000000E+00   0.00000000000000E+00
      0.00000000000000E+00   0.00000000000000E+00  -9.42343486595379E-21  -7.21041715762339E-28  -9.42343558699551E-21
      4.29566988700462E-15   1.63113333333333E+00   1.63113333333333E+00   0.00000000000000E+00   0.00000000000000E+00
      2.57329870802659E-13   2.55857206135794E-20   2.57329896388380E-13   1.04822649123931E-14   3.00000000000000E+00
      3.00000000000000E+00   0.00000000000000E+00   0.00000000000000E+00   0.00000000000000E+00   0.00000000000000E+00
      0.00000000000000E+00   3.52310041857820E-15
      5.68711111111111E-01
      0.00000000000000E+00   0.00000000000000E+00   0.00000000000000E+00   0.00000000000000E+00  -2.87417522906905E-20
     -3.17425575966063E-13  -3.17425604707815E-13  -1.85478245501678E-14   0.00000000000000E+00   0.00000000000000E+00
      0.00000000000000E+00   0.00000000000000E+00  -9.42273121859630E-21  -2.19470542808566E-28  -9.42273143806684E-21
      4.29566988688422E-15   1.70613333333333E+00   1.70613333333333E+00   0.00000000000000E+00   0.00000000000000E+00
      3.17425589907236E-13   2.42233108064656E-20   3.17425614130547E-13   1.07307821478064E-14   3.00000000000000E+00
      3.00000000000000E+00   0.00000000000000E+00   0.00000000000000E+00   0.00000000000000E+00   0.00000000000000E+00
      0.00000000000000E+00   3.52137251547721E-15
      5.93711111111111E-01
      0.00000000000000E+00   0.00000000000000E+00   0.00000000000000E+00   0.00000000000000E+00  -2.87411371674193E-20
     -3.46892616801534E-13  -3.46892645542671E-13  -1.87919251835463E-14   0.00000000000000E+00   0.00000000000000E+00
      0.00000000000000E+00   0.00000000000000E+00  -9.42220367412890E-21  -1.94811268244713E-28  -9.42220386894017E-21
      4.29566988682518E-15   1.78113333333333E+00   1.78113333333333E+00   0.00000000000000E+00   0.00000000000000E+00
      3.46892629046925E-13   2.59179508122239E-20   3.46892654964875E-13   1.09766100427491E-14   3.00000000000000E+00
      3.00000000000000E+00   0.00000000000000E+00   0.00000000000000E+00   0.00000000000000E+00   0.00000000000000E+00
      0.00000000000000E+00   3.51964525397204E-15
      6.18711111111111E-01
      0.00000000000000E+00   0.00000000000000E+00   0.00000000000000E+00   0.00000000000000E+00  -2.87406922396451E-20
     -3.56179895651308E-13  -3.56179924392001E-13  -1.90320400625219E-14   0.00000000000000E+00   0.00000000000000E+00
      0.00000000000000E+00   0.00000000000000E+00  -9.42183579759835E-21   1.53761782422299E-28  -9.42183564383657E-21
      4.29566988680658E-15   1.85613333333333E+00   1.85613333333333E+00   0.00000000000000E+00   0.00000000000000E+00
      3.56179907824437E-13   2.59894000124848E-20   3.56179933813837E-13   1.12184515224270E-14   3.00000000000000E+00
      3.00000000000000E+00   0.00000000000000E+00   0.00000000000000E+00   0.00000000000000E+00   0.00000000000000E+00
      0.00000000000000E+00   3.51791865328826E-15
      6.43711111111111E-01
      0.00000000000000E+00   0.00000000000000E+00   0.00000000000000E+00   0.00000000000000E+00  -2.87405983015103E-20
     -3.58670888928385E-13  -3.58670917668983E-13  -1.92661878206777E-14   0.00000000000000E+00   0.00000000000000E+00
      0.00000000000000E+00   0.00000000000000E+00  -9.42161504683638E-21   1.50512013713765E-28  -9.42161489632437E-21
      4.29566988680159E-15   1.93113333333333E+00   1.93113333333333E+00   0.00000000000000E+00   0.00000000000000E+00
      3.58670901025330E-13   2.60652677734199E-20   3.58670927090598E-13   1.14543252021173E-14   3.00000000000000E+00
      3.00000000000000E+00   0.00000000000000E+00   0.00000000000000E+00   0.00000000000000E+00   0.00000000000000E+00
      0.00000000000000E+00   3.51619273175887E-15
      6.68711111111111E-01
      0.00000000000000E+00   0.00000000000000E+00   0.00000000000000E+00   0.00000000000000E+00  -2.87407829426617E-20
     -3.59310760053263E-13  -3.59310788794046E-13  -1.94920508319248E-14   0.00000000000000E+00   0.00000000000000E+00
      0.00000000000000E+00   0.00000000000000E+00  -9.42151757313297E-21   1.55380228002528E-28  -9.42151741775274E-21
      4.29566988680031E-15   2.00613333333333E+00   2.00613333333333E+00   0.00000000000000E+00   0.00000000000000E+00
      3.59310772072750E-13   2.61428131180332E-20   3.59310798215563E-13   1.16819134384921E-14   3.00000000000000E+00
      3.00000000000000E+00   0.00000000000000E+00   0.00000000000000E+00   0.00000000000000E+00   0.00000000000000E+00
      0.00000000000000E+00   3.51446750663235E-15
      6.93711111111111E-01
      0.00000000000000E+00   0.00000000000000E+00   0.00000000000000E+00   0.00000000000000E+00  -2.87411735665040E-20
     -3.59478854273060E-13  -3.59478883014234E-13  -1.97079797172853E-14   0.00000000000000E+00   0.00000000000000E+00
      0.00000000000000E+00   0.00000000000000E+00  -9.42151487277427E-21  -2.54908313498342E-28  -9.42151512768258E-21
      4.29566988679998E-15   2.08113333333333E+00   2.08113333333333E+00   0.00000000000000E+00   0.00000000000000E+00
      3.59478866219787E-13   2.62159608157845E-20   3.59478892435748E-13   1.18995668366032E-14   3.00000000000000E+00
      3.00000000000000E+00   0.00000000000000E+00   0.00000000000000E+00   0.00000000000000E+00   0.00000000000000E+00
      0.00000000000000E+00   3.51274299388221E-15
      7.18711111111111E-01
      0.00000000000000E+00   0.00000000000000E+00   0.00000000000000E+00   0.00000000000000E+00  -2.87417138199768E-20
     -3.59543286838726E-13  -3.59543315580440E-13  -1.99136149426119E-14   0.00000000000000E+00   0.00000000000000E+00
      0.00000000000000E+00   0.00000000000000E+00  -9.42158721412349E-21  -5.49667425399708E-29  -9.42158726909023E-21
      4.29566988679985E-15   2.15613333333333E+00   2.15613333333333E+00   0.00000000000000E+00   0.00000000000000E+00
      3.59543298720440E-13   2.62815871132126E-20   3.59543325002027E-13   1.21069258477779E-14   3.00000000000000E+00
      3.00000000000000E+00   0.00000000000000E+00   0.00000000000000E+00   0.00000000000000E+00   0.00000000000000E+00
      0.00000000000000E+00   3.51101920803410E-15
      7.43711111111111E-01
      0.00000000000000E+00   0.00000000000000E+00   0.00000000000000E+00   0.00000000000000E+00  -2.87424151566763E-20
     -3.59644871601695E-13  -3.59644900344111E-13  -2.01104884313999E-14   0.00000000000000E+00   0.00000000000000E+00
      0.00000000000000E+00   0.00000000000000E+00  -9.42173138887942E-21  -5.15832978332517E-28  -9.42173190471240E-21
      4.29566988679965E-15   2.23113333333333E+00   2.23113333333333E+00   0.00000000000000E+00   0.00000000000000E+00
      3.59644883425772E-13   2.63400711687908E-20   3.59644909765843E-13   1.23055223825807E-14   3.00000000000000E+00
      3.00000000000000E+00   0.00000000000000E+00   0.00000000000000E+00   0.00000000000000E+00   0.00000000000000E+00
      0.00000000000000E+00   3.50929616201953E-15
      7.68711111111111E-01
      0.00000000000000E+00   0.00000000000000E+00   0.00000000000000E+00   0.00000000000000E+00  -2.87432660556603E-20
     -3.60011606261698E-13  -3.60011635004965E-13  -2.03015883826710E-14   0.00000000000000E+00   0.00000000000000E+00
      0.00000000000000E+00   0.00000000000000E+00  -9.42194639871017E-21  -7.44035628337219E-28  -9.42194714274580E-21
      4.29566988679892E-15   2.30613333333333E+00   2.30613333333333E+00   0.00000000000000E+00   0.00000000000000E+00
      3.60011618036578E-13   2.63903341497030E-20   3.60011644426912E-13   1.24983446288074E-14   3.00000000000000E+00
      3.00000000000000E+00   0.00000000000000E+00   0.00000000000000E+00   0.00000000000000E+00   0.00000000000000E+00
      0.00000000000000E+00   3.50757386706462E-15
      7.93711111111111E-01
      0.00000000000000E+00   0.00000000000000E+00   0.00000000000000E+00   0.00000000000000E+00  -2.87442615914898E-20
     -3.61468031917249E-13  -3.61468060661510E-13  -2.04899195726294E-14   0.00000000000000E+00   0.00000000000000E+00
      0.00000000000000E+00   0.00000000000000E+00  -9.42222994345134E-21  -2.30856098637521E-28  -9.42223017430744E-21
      4.29566988679599E-15   2.38113333333333E+00   2.38113333333333E+00   0.00000000000000E+00   0.00000000000000E+00
      3.61468043651461E-13   2.64322790903016E-20   3.61468070083740E-13   1.26883973532093E-14   3.00000000000000E+00
      3.00000000000000E+00   0.00000000000000E+00   0.00000000000000E+00   0.00000000000000E+00   0.00000000000000E+00
      0.00000000000000E+00   3.50585233262402E-15
      8.18711111111112E-01
      0.00000000000000E+00   0.00000000000000E+00   0.00000000000000E+00   0.00000000000000E+00  -2.87453987634731E-20
     -3.67094111253173E-13  -3.67094139998572E-13  -2.06772132754183E-14   0.00000000000000E+00   0.00000000000000E+00
      0.00000000000000E+00   0.00000000000000E+00  -9.42258280070591E-21  -9.72777162935092E-29  -9.42258289798363E-21
      4.29566988678467E-15   2.45613333333333E+00   2.45613333333333E+00   0.00000000000000E+00   0.00000000000000E+00
      3.67094122953793E-13   2.64673620111950E-20   3.67094149421155E-13   1.28774118222626E-14   3.00000000000000E+00
      3.00000000000000E+00   0.00000000000000E+00   0.00000000000000E+00   0.00000000000000E+00   0.00000000000000E+00
      0.00000000000000E+00   3.50413156637098E-15
      8.43711111111112E-01
      0.00000000000000E+00   0.00000000000000E+00   0.00000000000000E+00   0.00000000000000E+00  -2.87466710462625E-20
     -3.86123961783562E-13  -3.86123990530233E-13  -2.08641370968713E-14   0.00000000000000E+00   0.00000000000000E+00
      0.00000000000000E+00   0.00000000000000E+00  -9.42301375514590E-21  -2.09682972661156E-28  -9.42301396482887E-21
      4.29566988674636E-15   2.53113333333333E+00   2.53113333333333E+00   0.00000000000000E+00   0.00000000000000E+00
      3.86123973456253E-13   2.64969949444590E-20   3.86123999953248E-13   1.30660556358756E-14   3.00000000000000E+00
      3.00000000000000E+00   0.00000000000000E+00   0.00000000000000E+00   0.00000000000000E+00   0.00000000000000E+00
      0.00000000000000E+00   3.50241157424928E-15
      8.68711111111112E-01
      0.00000000000000E+00   0.00000000000000E+00   0.00000000000000E+00   0.00000000000000E+00  -2.87480730137179E-20