DF-ISE text

Info {
  version   = 1.0
  type      = xyplot
  datasets  = [
    "time"
    "substrate OuterVoltage" "substrate InnerVoltage" "substrate QuasiFermiPotential" "substrate DisplacementCurrent" "substrate eCurrent"
    "substrate hCurrent" "substrate TotalCurrent" "substrate Charge" "source OuterVoltage" "source InnerVoltage"
    "source QuasiFermiPotential" "source DisplacementCurrent" "source eCurrent" "source hCurrent" "source TotalCurrent"
    "source Charge" "drain OuterVoltage" "drain InnerVoltage" "drain QuasiFermiPotential" "drain DisplacementCurrent"
    "drain eCurrent" "drain hCurrent" "drain TotalCurrent" "drain Charge" "gate OuterVoltage"
    "gate InnerVoltage" "gate QuasiFermiPotential" "gate DisplacementCurrent" "gate eCurrent" "gate hCurrent"
    "gate TotalCurrent" "gate Charge" ]
  functions = [
    Time
    OuterVoltage InnerVoltage QuasiFermiPotential DisplacementCurrent eCurrent
    hCurrent TotalCurrent Charge OuterVoltage InnerVoltage
    QuasiFermiPotential DisplacementCurrent eCurrent hCurrent TotalCurrent
    Charge OuterVoltage InnerVoltage QuasiFermiPotential DisplacementCurrent
    eCurrent hCurrent TotalCurrent Charge OuterVoltage
    InnerVoltage QuasiFermiPotential DisplacementCurrent eCurrent hCurrent
    TotalCurrent Charge ]
}

Data {
      0.00000000000000E+00
      0.00000000000000E+00   0.00000000000000E+00   0.00000000000000E+00   0.00000000000000E+00  -3.70198490495167E-26
      1.16324522664985E-27  -3.58566038228668E-26  -8.72619042861953E-15   0.00000000000000E+00   0.00000000000000E+00
      0.00000000000000E+00   0.00000000000000E+00   9.04081905236833E-27  -3.34571093192070E-28   8.70624795917626E-27
      4.15334684340684E-15   0.00000000000000E+00   0.00000000000000E+00   0.00000000000000E+00   0.00000000000000E+00
      2.79789605917053E-26  -8.28604728014738E-28   2.71503558636906E-26   4.15334684340684E-15   0.00000000000000E+00
      0.00000000000000E+00   0.00000000000000E+00   0.00000000000000E+00   0.00000000000000E+00   0.00000000000000E+00
      0.00000000000000E+00   4.19496741805842E-16
      1.00000000000000E-02
      0.00000000000000E+00   0.00000000000000E+00   0.00000000000000E+00   0.00000000000000E+00  -3.08227545141342E-20
     -1.73362949729900E-16  -1.73393772484414E-16  -8.84924352435069E-15   0.00000000000000E+00   0.00000000000000E+00
      0.00000000000000E+00   0.00000000000000E+00  -2.22685537778956E-20  -4.13290787478650E-29  -2.22685538192247E-20
      4.15334684340652E-15   3.00000000000000E-02   3.00000000000000E-02   0.00000000000000E+00   0.00000000000000E+00
      1.73391890841314E-16   2.41501969201708E-20   1.73416041038234E-16   4.27753005143793E-15   0.00000000000000E+00
      0.00000000000000E+00   0.00000000000000E+00   0.00000000000000E+00   0.00000000000000E+00   0.00000000000000E+00
      0.00000000000000E+00   4.18366629506241E-16
      2.33333333333333E-02
      0.00000000000000E+00   0.00000000000000E+00   0.00000000000000E+00   0.00000000000000E+00  -7.57130324188869E-20
     -4.21753624335149E-16  -4.21829337367568E-16  -9.01304747339106E-15   0.00000000000000E+00   0.00000000000000E+00
      0.00000000000000E+00   0.00000000000000E+00  -2.97769326303593E-20   1.16349146764715E-28  -2.97769325140101E-20
      4.15334684340554E-15   7.00000000000000E-02   7.00000000000000E-02   0.00000000000000E+00   0.00000000000000E+00
      4.21826915146029E-16   3.21991540527433E-20   4.21859114300082E-16   4.44284060458040E-15   0.00000000000000E+00
      0.00000000000000E+00   0.00000000000000E+00   0.00000000000000E+00   0.00000000000000E+00   0.00000000000000E+00
      0.00000000000000E+00   4.16860025405099E-16
      4.28888888888889E-02
      0.00000000000000E+00   0.00000000000000E+00   0.00000000000000E+00   0.00000000000000E+00  -5.26906479761713E-19
     -8.74475936853909E-16  -8.75002843333670E-16  -9.25271374709147E-15   0.00000000000000E+00   0.00000000000000E+00
      0.00000000000000E+00   0.00000000000000E+00  -3.08816030367076E-20  -1.99355355047260E-28  -3.08816032360629E-20
      4.15334684312531E-15   1.28666666666667E-01   1.28666666666667E-01   0.00000000000000E+00   0.00000000000000E+00
      8.75012366792210E-16   2.13581446963262E-20   8.75033724936907E-16   4.68471623935325E-15   0.00000000000000E+00
      0.00000000000000E+00   0.00000000000000E+00   0.00000000000000E+00   0.00000000000000E+00   0.00000000000000E+00
      0.00000000000000E+00   4.14650664612893E-16
      6.78888888888889E-02
      0.00000000000000E+00   0.00000000000000E+00   0.00000000000000E+00   0.00000000000000E+00  -4.28816962495135E-20
     -1.54501234148528E-15  -1.54505522318153E-15  -9.55791721169441E-15   0.00000000000000E+00   0.00000000000000E+00
      0.00000000000000E+00   0.00000000000000E+00  -3.05891091191540E-20  -1.46122645085344E-28  -3.05891092652767E-20
      4.15334684340437E-15   2.03666666666667E-01   2.03666666666667E-01   0.00000000000000E+00   0.00000000000000E+00
      1.54499215404089E-15   9.36582499067327E-20   1.54508581229080E-15   4.99274389669209E-15   0.00000000000000E+00
      0.00000000000000E+00   0.00000000000000E+00   0.00000000000000E+00   0.00000000000000E+00   0.00000000000000E+00
      0.00000000000000E+00   4.11826471597951E-16
      9.28888888888889E-02
      0.00000000000000E+00   0.00000000000000E+00   0.00000000000000E+00   0.00000000000000E+00  -4.30841351696724E-20
     -2.22050028780675E-15  -2.22054337194192E-15  -9.86130845797974E-15   0.00000000000000E+00   0.00000000000000E+00
      0.00000000000000E+00   0.00000000000000E+00  -3.05827147999536E-20  -3.75241267524667E-28  -3.05827151751949E-20
      4.15334684339702E-15   2.78666666666667E-01   2.78666666666667E-01   0.00000000000000E+00   0.00000000000000E+00
      2.22033126237099E-15   2.42692286111104E-19   2.22057395465710E-15   5.29895944365670E-15   0.00000000000000E+00
      0.00000000000000E+00   0.00000000000000E+00   0.00000000000000E+00   0.00000000000000E+00   0.00000000000000E+00
      0.00000000000000E+00   4.09002170926009E-16
      1.17888888888889E-01
      0.00000000000000E+00   0.00000000000000E+00   0.00000000000000E+00   0.00000000000000E+00  -4.26777388458169E-20
     -2.64870934785898E-15  -2.64875202559783E-15  -1.01623523108629E-14   0.00000000000000E+00   0.00000000000000E+00
      0.00000000000000E+00   0.00000000000000E+00  -3.06173764550145E-20   2.81508666345933E-28  -3.06173761735058E-20
      4.15334684340178E-15   3.53666666666667E-01   3.53666666666667E-01   0.00000000000000E+00   0.00000000000000E+00
      2.64874778934620E-15   3.48536278008633E-20   2.64878264297400E-15   5.60282815479494E-15   0.00000000000000E+00
      0.00000000000000E+00   0.00000000000000E+00   0.00000000000000E+00   0.00000000000000E+00   0.00000000000000E+00
      0.00000000000000E+00   4.06177312666139E-16
      1.42888888888889E-01
      0.00000000000000E+00   0.00000000000000E+00   0.00000000000000E+00   0.00000000000000E+00  -4.27307106554955E-20
     -2.80793478733033E-15  -2.80797751804098E-15  -1.04613174250715E-14   0.00000000000000E+00   0.00000000000000E+00
      0.00000000000000E+00   0.00000000000000E+00  -3.06505114020597E-20  -6.38015652901737E-28  -3.06505120400753E-20
      4.15334684340159E-15   4.28666666666667E-01   4.28666666666667E-01   0.00000000000000E+00   0.00000000000000E+00
      2.80797344198909E-15   3.47265639413765E-20   2.80800816855303E-15   5.90461910318266E-15   0.00000000000000E+00
      0.00000000000000E+00   0.00000000000000E+00   0.00000000000000E+00   0.00000000000000E+00   0.00000000000000E+00
      0.00000000000000E+00   4.03351478487194E-16
      1.67888888888889E-01
      0.00000000000000E+00   0.00000000000000E+00   0.00000000000000E+00   0.00000000000000E+00  -4.27782851703548E-20
     -2.85389352723681E-15  -2.85393630552198E-15  -1.07591242031900E-14   0.00000000000000E+00   0.00000000000000E+00
      0.00000000000000E+00   0.00000000000000E+00  -3.06831987025793E-20   3.76759609476959E-28  -3.06831983258197E-20
      4.15334684340150E-15   5.03666666666667E-01   5.03666666666667E-01   0.00000000000000E+00   0.00000000000000E+00
      2.85393220941449E-15   3.47793058143827E-20   2.85396698872031E-15   6.20525303300548E-15   0.00000000000000E+00
      0.00000000000000E+00   0.00000000000000E+00   0.00000000000000E+00   0.00000000000000E+00   0.00000000000000E+00
      0.00000000000000E+00   4.00524326782973E-16
      1.92888888888889E-01
      0.00000000000000E+00   0.00000000000000E+00   0.00000000000000E+00   0.00000000000000E+00  -4.28231010957337E-20
     -2.86763809783670E-15  -2.86768092093779E-15  -1.10563086422976E-14   0.00000000000000E+00   0.00000000000000E+00
      0.00000000000000E+00   0.00000000000000E+00  -3.07154820757515E-20  -4.34953925834734E-28  -3.07154825107055E-20
      4.15334684340147E-15   5.78666666666667E-01   5.78666666666667E-01   0.00000000000000E+00   0.00000000000000E+00
      2.86767681088252E-15   3.48255377806294E-20   2.86771163642030E-15   6.50526614238616E-15   0.00000000000000E+00
      0.00000000000000E+00   0.00000000000000E+00   0.00000000000000E+00   0.00000000000000E+00   0.00000000000000E+00
      0.00000000000000E+00   3.97695656509949E-16
      2.17888888888889E-01
      0.00000000000000E+00   0.00000000000000E+00   0.00000000000000E+00   0.00000000000000E+00  -4.27921308766072E-20
     -2.87591822001448E-15  -2.87596101214536E-15  -1.13529937196623E-14   0.00000000000000E+00   0.00000000000000E+00
      0.00000000000000E+00   0.00000000000000E+00  -3.07469357040993E-20  -5.65889857665534E-28  -3.07469362699892E-20
      4.15334684340148E-15   6.53666666666667E-01   6.53666666666667E-01   0.00000000000000E+00   0.00000000000000E+00
      2.87595689227493E-15   3.48668066923752E-20   2.87599175908163E-15   6.80478136441335E-15   0.00000000000000E+00
      0.00000000000000E+00   0.00000000000000E+00   0.00000000000000E+00   0.00000000000000E+00   0.00000000000000E+00
      0.00000000000000E+00   3.94865511847493E-16
      2.42888888888889E-01
      0.00000000000000E+00   0.00000000000000E+00   0.00000000000000E+00   0.00000000000000E+00  -4.29047154121836E-20
     -2.89174505042635E-15  -2.89178795514176E-15  -1.16491460557707E-14   0.00000000000000E+00   0.00000000000000E+00
      0.00000000000000E+00   0.00000000000000E+00  -3.07769443639929E-20   5.25116556023507E-28  -3.07769438388763E-20
      4.15334684340143E-15   7.28666666666667E-01   7.28666666666666E-01   0.00000000000000E+00   0.00000000000000E+00
      2.89178382756543E-15   3.49045201615264E-20   2.89181873208560E-15   7.10376484310458E-15   0.00000000000000E+00
      0.00000000000000E+00   0.00000000000000E+00   0.00000000000000E+00   0.00000000000000E+00   0.00000000000000E+00
      0.00000000000000E+00   3.92034369264741E-16
      2.67888888888889E-01
      0.00000000000000E+00   0.00000000000000E+00   0.00000000000000E+00   0.00000000000000E+00  -4.29423245836249E-20
     -2.93439603514817E-15  -2.93443897747275E-15  -1.19446734112772E-14   0.00000000000000E+00   0.00000000000000E+00
      0.00000000000000E+00   0.00000000000000E+00  -3.08058631377275E-20   2.21224699167564E-28  -3.08058629165028E-20
      4.15334684340135E-15   8.03666666666667E-01   8.03666666666667E-01   0.00000000000000E+00   0.00000000000000E+00
      2.93443484400013E-15   3.49393355373453E-20   2.93446978333567E-15   7.40212308980061E-15   0.00000000000000E+00
      0.00000000000000E+00   0.00000000000000E+00   0.00000000000000E+00   0.00000000000000E+00   0.00000000000000E+00
      0.00000000000000E+00   3.89203478075235E-16
      2.92888888888889E-01
      0.00000000000000E+00   0.00000000000000E+00   0.00000000000000E+00   0.00000000000000E+00  -4.29784894054742E-20
     -3.03944965134804E-15  -3.03949262983745E-15  -1.22394492381987E-14   0.00000000000000E+00   0.00000000000000E+00
      0.00000000000000E+00   0.00000000000000E+00  -3.08337816981696E-20   8.24092054531433E-29  -3.08337816157604E-20
      4.15334684340115E-15   8.78666666666667E-01   8.78666666666667E-01   0.00000000000000E+00   0.00000000000000E+00
      3.03948849165683E-15   3.49719622284857E-20   3.03952346361906E-15   7.69972693438777E-15   0.00000000000000E+00
      0.00000000000000E+00   0.00000000000000E+00   0.00000000000000E+00   0.00000000000000E+00   0.00000000000000E+00
      0.00000000000000E+00   3.86375460409810E-16
      3.17888888888889E-01
      0.00000000000000E+00   0.00000000000000E+00   0.00000000000000E+00   0.00000000000000E+00  -4.30132064857119E-20
     -3.22987310117550E-15  -3.22991611438199E-15  -1.25333261628085E-14   0.00000000000000E+00   0.00000000000000E+00
      0.00000000000000E+00   0.00000000000000E+00  -3.08608432143304E-20  -7.65720414750800E-28  -3.08608439800508E-20
      4.15334684340078E-15   9.53666666666667E-01   9.53666666666667E-01   0.00000000000000E+00   0.00000000000000E+00
      3.22991197233993E-15   3.50028860437724E-20   3.22994697522597E-15   7.99642400838646E-15   0.00000000000000E+00
      0.00000000000000E+00   0.00000000000000E+00   0.00000000000000E+00   0.00000000000000E+00   0.00000000000000E+00
      0.00000000000000E+00   3.83555311021320E-16
      3.42888888888889E-01
      0.00000000000000E+00   0.00000000000000E+00   0.00000000000000E+00   0.00000000000000E+00  -4.30459620053732E-20
     -3.46960974641222E-15  -3.46965279237423E-15  -1.28261457673912E-14   0.00000000000000E+00   0.00000000000000E+00
      0.00000000000000E+00   0.00000000000000E+00  -3.08858791098061E-20  -6.26087025384261E-28  -3.08858797358931E-20
      4.15334684340033E-15   1.02866666666667E+00   1.02866666666667E+00   0.00000000000000E+00   0.00000000000000E+00
      3.46964864576126E-15   3.50324927061139E-20   3.46968367825397E-15   8.29204681424950E-15   0.00000000000000E+00
      0.00000000000000E+00   0.00000000000000E+00   0.00000000000000E+00   0.00000000000000E+00   0.00000000000000E+00
      0.00000000000000E+00   3.80752109741374E-16
      3.67888888888889E-01
      0.00000000000000E+00   0.00000000000000E+00   0.00000000000000E+00   0.00000000000000E+00  -4.30756242359216E-20
     -3.67022734248279E-15  -3.67027041810703E-15  -1.31177051833645E-14   0.00000000000000E+00   0.00000000000000E+00
      0.00000000000000E+00   0.00000000000000E+00  -3.09079629167177E-20  -1.56270242750544E-28  -3.09079630729879E-20
      4.15334684339995E-15   1.10366666666667E+00   1.10366666666667E+00   0.00000000000000E+00   0.00000000000000E+00
      3.67026626497641E-15   3.50610937010968E-20   3.67030132607011E-15   8.58637578960781E-15   0.00000000000000E+00
      0.00000000000000E+00   0.00000000000000E+00   0.00000000000000E+00   0.00000000000000E+00   0.00000000000000E+00
      0.00000000000000E+00   3.77982550356710E-16
      3.92888888888889E-01
      0.00000000000000E+00   0.00000000000000E+00   0.00000000000000E+00   0.00000000000000E+00  -4.31032366831290E-20
     -3.76006786235778E-15  -3.76011096559446E-15  -1.34076486869145E-14   0.00000000000000E+00   0.00000000000000E+00
      0.00000000000000E+00   0.00000000000000E+00  -3.09281398299645E-20  -7.94247498602123E-28  -3.09281406242120E-20
      4.15334684339978E-15   1.17866666666667E+00   1.17866666666667E+00   0.00000000000000E+00   0.00000000000000E+00
      3.76010680479490E-15   3.50889401913589E-20   3.76014189373509E-15   8.87902376270006E-15   0.00000000000000E+00
      0.00000000000000E+00   0.00000000000000E+00   0.00000000000000E+00   0.00000000000000E+00   0.00000000000000E+00
      0.00000000000000E+00   3.75278080814651E-16
      4.17888888888889E-01
      0.00000000000000E+00   0.00000000000000E+00   0.00000000000000E+00   0.00000000000000E+00  -4.31298231487981E-20
     -3.78647823252962E-15  -3.78652136235277E-15  -1.36954555751658E-14   0.00000000000000E+00   0.00000000000000E+00
      0.00000000000000E+00   0.00000000000000E+00  -3.09476410559347E-20   4.07791629233838E-28  -3.09476406481431E-20
      4.15334684339973E-15   1.25366666666667E+00   1.25366666666667E+00   0.00000000000000E+00   0.00000000000000E+00
      3.78651719362044E-15   3.51163729813765E-20   3.78655230999342E-15   9.16942270047407E-15   0.00000000000000E+00
      0.00000000000000E+00   0.00000000000000E+00   0.00000000000000E+00   0.00000000000000E+00   0.00000000000000E+00
      0.00000000000000E+00   3.72686031291987E-16
      4.42888888888889E-01
      0.00000000000000E+00   0.00000000000000E+00   0.00000000000000E+00   0.00000000000000E+00  -4.31570105135423E-20
     -3.79761738433455E-15  -3.79766054134506E-15  -1.39811252523677E-14   0.00000000000000E+00   0.00000000000000E+00
      0.00000000000000E+00   0.00000000000000E+00  -3.09669140411376E-20   6.31191539608834E-28  -3.09669134099460E-20
      4.15334684339971E-15   1.32866666666667E+00   1.32866666666667E+00   0.00000000000000E+00   0.00000000000000E+00
      3.79765636508698E-15   3.51431714944840E-20   3.79769150825848E-15   9.45756153970964E-15   0.00000000000000E+00
      0.00000000000000E+00   0.00000000000000E+00   0.00000000000000E+00   0.00000000000000E+00   0.00000000000000E+00
      0.00000000000000E+00   3.70216869258336E-16
      4.67888888888889E-01
      0.00000000000000E+00   0.00000000000000E+00   0.00000000000000E+00   0.00000000000000E+00  -4.31838064999293E-20
     -3.81662689175475E-15  -3.81667007556125E-15  -1.42655848662232E-14   0.00000000000000E+00   0.00000000000000E+00
      0.00000000000000E+00   0.00000000000000E+00  -3.09862914857978E-20   3.12708161505077E-28  -3.09862911730896E-20
      4.15334684339967E-15   1.40366666666667E+00   1.40366666666667E+00   0.00000000000000E+00   0.00000000000000E+00
      3.81666589198403E-15   3.51698683997207E-20   3.81670106185243E-15   9.74443159808587E-15   0.00000000000000E+00
      0.00000000000000E+00   0.00000000000000E+00   0.00000000000000E+00   0.00000000000000E+00   0.00000000000000E+00
      0.00000000000000E+00   3.67806424737670E-16
      4.92888888888889E-01
      0.00000000000000E+00   0.00000000000000E+00   0.00000000000000E+00   0.00000000000000E+00  -4.32107969638659E-20
     -3.85459343994961E-15  -3.85463665074658E-15  -1.45495106720813E-14   0.00000000000000E+00   0.00000000000000E+00
      0.00000000000000E+00   0.00000000000000E+00  -3.10060485342107E-20   6.79075991398565E-28  -3.10060478551347E-20
      4.15334684339960E-15   1.47866666666667E+00   1.47866666666667E+00   0.00000000000000E+00   0.00000000000000E+00
      3.85463246034513E-15   3.51964493152865E-20   3.85466765679444E-15   1.00307581835990E-14   0.00000000000000E+00
      0.00000000000000E+00   0.00000000000000E+00   0.00000000000000E+00   0.00000000000000E+00   0.00000000000000E+00
      0.00000000000000E+00   3.65405645082770E-16
      5.17888888888889E-01
      0.00000000000000E+00   0.00000000000000E+00   0.00000000000000E+00   0.00000000000000E+00  -4.23703983001244E-20
     -3.93007355721007E-15  -3.93011592760837E-15  -1.48331055525328E-14   0.00000000000000E+00   0.00000000000000E+00
      0.00000000000000E+00   0.00000000000000E+00  -3.10259895752995E-20  -3.93015049885327E-28  -3.10259899683145E-20
      4.15334684339946E-15   1.55366666666667E+00   1.55366666666667E+00   0.00000000000000E+00   0.00000000000000E+00
      3.93011173944723E-15   3.52141511151597E-20   3.93014695359834E-15   1.03167579244444E-14   0.00000000000000E+00
      0.00000000000000E+00   0.00000000000000E+00   0.00000000000000E+00   0.00000000000000E+00   0.00000000000000E+00
      0.00000000000000E+00   3.63000784688940E-16
      5.42888888888889E-01
      0.00000000000000E+00   0.00000000000000E+00   0.00000000000000E+00   0.00000000000000E+00  -4.28237942366420E-20
     -4.10788435577556E-15  -4.10792717956980E-15  -1.51164155113324E-14   0.00000000000000E+00   0.00000000000000E+00
      0.00000000000000E+00   0.00000000000000E+00  -3.10461385552726E-20   5.94471015708701E-28  -3.10461379608015E-20
      4.15334684339912E-15   1.62866666666667E+00   1.62866666666667E+00   0.00000000000000E+00   0.00000000000000E+00
      4.10792297777573E-15   3.52479320300410E-20   4.10795822570776E-15   1.06024793967492E-14   0.00000000000000E+00
      0.00000000000000E+00   0.00000000000000E+00   0.00000000000000E+00   0.00000000000000E+00   0.00000000000000E+00
      0.00000000000000E+00   3.60589271184089E-16
      5.67888888888889E-01
      0.00000000000000E+00   0.00000000000000E+00   0.00000000000000E+00   0.00000000000000E+00  -4.32887749707617E-20
     -4.37881687691493E-15  -4.37886016568990E-15  -1.53994457179388E-14   0.00000000000000E+00   0.00000000000000E+00
      0.00000000000000E+00   0.00000000000000E+00  -3.10665767409149E-20   4.80809489069831E-28  -3.10665762601054E-20
      4.15334684339860E-15   1.70366666666667E+00   1.70366666666667E+00   0.00000000000000E+00   0.00000000000000E+00
      4.37885591562889E-15   3.53166372683903E-20   4.37889123226616E-15   1.08879281705875E-14   0.00000000000000E+00
      0.00000000000000E+00   0.00000000000000E+00   0.00000000000000E+00   0.00000000000000E+00   0.00000000000000E+00
      0.00000000000000E+00   3.58170703952707E-16
      5.92888888888889E-01
      0.00000000000000E+00   0.00000000000000E+00   0.00000000000000E+00   0.00000000000000E+00  -4.33214059530602E-20
     -4.60245278141785E-15  -4.60249610282381E-15  -1.56821870996081E-14   0.00000000000000E+00   0.00000000000000E+00
      0.00000000000000E+00   0.00000000000000E+00  -3.10870190725651E-20   3.62152517710498E-29  -3.10870190363499E-20
      4.15334684339815E-15   1.77866666666667E+00   1.77866666666667E+00   0.00000000000000E+00   0.00000000000000E+00
      4.60249190824445E-15   3.52815983889562E-20   4.60252718984284E-15   1.11730952180683E-14   0.00000000000000E+00
      0.00000000000000E+00   0.00000000000000E+00   0.00000000000000E+00   0.00000000000000E+00   0.00000000000000E+00
      0.00000000000000E+00   3.55745038141654E-16
      6.17888888888889E-01
      0.00000000000000E+00   0.00000000000000E+00   0.00000000000000E+00   0.00000000000000E+00  -4.33493375707386E-20
     -4.81131708441291E-15  -4.81136043375048E-15  -1.59646233117794E-14   0.00000000000000E+00   0.00000000000000E+00
      0.00000000000000E+00   0.00000000000000E+00  -3.11075966063875E-20  -4.50444743272533E-29  -3.11075966514320E-20
      4.15334684339776E-15   1.85366666666667E+00   1.85366666666667E+00   0.00000000000000E+00   0.00000000000000E+00
      4.81135623143311E-15   3.53099140300790E-20   4.81139154134714E-15   1.14579641692299E-14   0.00000000000000E+00
      0.00000000000000E+00   0.00000000000000E+00   0.00000000000000E+00   0.00000000000000E+00   0.00000000000000E+00
      0.00000000000000E+00   3.53312299151748E-16
      6.42888888888889E-01
      0.00000000000000E+00   0.00000000000000E+00   0.00000000000000E+00   0.00000000000000E+00  -4.33774709287333E-20
     -4.94070423384219E-15  -4.94074761131312E-15  -1.62467330644175E-14   0.00000000000000E+00   0.00000000000000E+00
      0.00000000000000E+00   0.00000000000000E+00  -3.11280698055652E-20  -2.51585240458054E-28  -3.11280700571505E-20
      4.15334684339753E-15   1.92866666666667E+00   1.92866666666667E+00   0.00000000000000E+00   0.00000000000000E+00
      4.94074342655359E-15   3.53128295871317E-20   4.94077873938317E-15   1.17425136565094E-14   0.00000000000000E+00
      0.00000000000000E+00   0.00000000000000E+00   0.00000000000000E+00   0.00000000000000E+00   0.00000000000000E+00
      0.00000000000000E+00   3.50872564510600E-16
      6.67888888888889E-01
      0.00000000000000E+00   0.00000000000000E+00   0.00000000000000E+00   0.00000000000000E+00  -4.34056091443261E-20
     -4.97884518368490E-15  -4.97888858929405E-15  -1.65284908451731E-14   0.00000000000000E+00   0.00000000000000E+00
      0.00000000000000E+00   0.00000000000000E+00  -3.11486178458347E-20   2.06221484054428E-28  -3.11486176396132E-20
      4.15334684339745E-15   2.00366666666667E+00   2.00366666666667E+00   0.00000000000000E+00   0.00000000000000E+00
      4.97888435024282E-15   3.53876688650811E-20   4.97891973791169E-15   1.20267180249708E-14   0.00000000000000E+00
      0.00000000000000E+00   0.00000000000000E+00   0.00000000000000E+00   0.00000000000000E+00   0.00000000000000E+00
      0.00000000000000E+00   3.48425976804850E-16
      6.92888888888889E-01
      0.00000000000000E+00   0.00000000000000E+00   0.00000000000000E+00   0.00000000000000E+00  -4.34334331424431E-20
     -4.98699290116083E-15  -4.98703633459397E-15  -1.68098668278967E-14   0.00000000000000E+00   0.00000000000000E+00
      0.00000000000000E+00   0.00000000000000E+00  -3.11690596078399E-20   6.10346992533665E-28  -3.11690589974929E-20
      4.15334684339743E-15   2.07866666666667E+00   2.07866666666667E+00   0.00000000000000E+00   0.00000000000000E+00
      4.98703208454917E-15   3.54191037982153E-20   4.98706750365297E-15   1.23105472390778E-14   0.00000000000000E+00
      0.00000000000000E+00   0.00000000000000E+00   0.00000000000000E+00   0.00000000000000E+00   0.00000000000000E+00
      0.00000000000000E+00   3.45972745421504E-16
      7.17888888888889E-01
      0.00000000000000E+00   0.00000000000000E+00   0.00000000000000E+00   0.00000000000000E+00  -4.34502931746931E-20
     -4.98896990071902E-15  -4.98901335101219E-15  -1.70908262364538E-14   0.00000000000000E+00   0.00000000000000E+00
      0.00000000000000E+00   0.00000000000000E+00  -3.11895707317341E-20   9.14123896209702E-29  -3.11895706403217E-20
      4.15334684339742E-15   2.15366666666667E+00   2.15366666666667E+00   0.00000000000000E+00   0.00000000000000E+00
      4.98900909073474E-15   3.54498480907152E-20   4.98904454058283E-15   1.25939662614748E-14   0.00000000000000E+00
      0.00000000000000E+00   0.00000000000000E+00   0.00000000000000E+00   0.00000000000000E+00   0.00000000000000E+00
      0.00000000000000E+00   3.43513131581523E-16
      7.42888888888889E-01
      0.00000000000000E+00   0.00000000000000E+00   0.00000000000000E+00   0.00000000000000E+00  -4.33234832812327E-20
     -4.99015083690546E-15  -4.99019416038874E-15  -1.73713282572477E-14   0.00000000000000E+00   0.00000000000000E+00
      0.00000000000000E+00   0.00000000000000E+00  -3.12100278435542E-20   8.95166351202585E-28  -3.12100269483879E-20
      4.15334684339742E-15   2.22866666666667E+00   2.22866666666667E+00   0.00000000000000E+00   0.00000000000000E+00
      4.99018988873762E-15   3.54816780837527E-20   4.99022537041570E-15   1.28769339935673E-14   0.00000000000000E+00
      0.00000000000000E+00   0.00000000000000E+00   0.00000000000000E+00   0.00000000000000E+00   0.00000000000000E+00
      0.00000000000000E+00   3.41047420282964E-16
      7.67888888888889E-01
      0.00000000000000E+00   0.00000000000000E+00   0.00000000000000E+00   0.00000000000000E+00  -4.34913482475020E-20
     -4.99193867041007E-15  -4.99198216175832E-15  -1.76513244996699E-14   0.00000000000000E+00   0.00000000000000E+00
      0.00000000000000E+00   0.00000000000000E+00  -3.12305544657172E-20  -1.65749501478012E-28  -3.12305546314667E-20
      4.15334684339742E-15   2.30366666666667E+00   2.30366666666667E+00   0.00000000000000E+00   0.00000000000000E+00
      4.99197787756212E-15   3.55147508320448E-20   4.99201339231295E-15   1.31594017699144E-14   0.00000000000000E+00
      0.00000000000000E+00   0.00000000000000E+00   0.00000000000000E+00   0.00000000000000E+00   0.00000000000000E+00
      0.00000000000000E+00   3.38575886358072E-16
      7.92888888888889E-01
      0.00000000000000E+00   0.00000000000000E+00   0.00000000000000E+00   0.00000000000000E+00  -4.35481610670443E-20
     -4.99530242343178E-15  -4.99534597159284E-15  -1.79307569212671E-14   0.00000000000000E+00   0.00000000000000E+00
      0.00000000000000E+00   0.00000000000000E+00  -3.12511783095202E-20  -1.64566488601647E-28  -3.12511784740867E-20
      4.15334684339741E-15   2.37866666666667E+00   2.37866666666667E+00   0.00000000000000E+00   0.00000000000000E+00
      4.99534167351274E-15   3.55492585820430E-20   4.99537722277132E-15   1.34413113152817E-14   0.00000000000000E+00
      0.00000000000000E+00   0.00000000000000E+00   0.00000000000000E+00   0.00000000000000E+00   0.00000000000000E+00
      0.00000000000000E+00   3.36098762587912E-16
      8.17888888888889E-01
      0.00000000000000E+00   0.00000000000000E+00   0.00000000000000E+00   0.00000000000000E+00  -4.35778052993603E-20
     -5.00172904622954E-15  -5.00177262403484E-15  -1.82095550307249E-14   0.00000000000000E+00   0.00000000000000E+00
      0.00000000000000E+00   0.00000000000000E+00  -3.12719226713831E-20   3.80055147562076E-28  -3.12719222913280E-20
      4.15334684339740E-15   2.45366666666667E+00   2.45366666666667E+00   0.00000000000000E+00   0.00000000000000E+00
      5.00176831052849E-15   3.55854286431253E-20   5.00180389595713E-15   1.37225919711101E-14   0.00000000000000E+00
      0.00000000000000E+00   0.00000000000000E+00   0.00000000000000E+00   0.00000000000000E+00   0.00000000000000E+00
      0.00000000000000E+00   3.33616216217318E-16
      8.42888888888889E-01
      0.00000000000000E+00   0.00000000000000E+00   0.00000000000000E+00   0.00000000000000E+00  -4.36074971577050E-20
     -5.01375060964003E-15  -5.01379421713718E-15  -1.84876320297371E-14   0.00000000000000E+00   0.00000000000000E+00
      0.00000000000000E+00   0.00000000000000E+00  -3.12928537533537E-20   1.80985645889370E-28  -3.12928535723681E-20
      4.15334684339737E-15   2.52866666666667E+00   2.52866666666667E+00   0.00000000000000E+00   0.00000000000000E+00
      5.01378988645658E-15   3.56235341748491E-20   5.01382550999076E-15   1.40031568488700E-14   0.00000000000000E+00
      0.00000000000000E+00   0.00000000000000E+00   0.00000000000000E+00   0.00000000000000E+00   0.00000000000000E+00
      0.00000000000000E+00   3.31128337469724E-16
      8.67888888888889E-01
      0.00000000000000E+00   0.00000000000000E+00   0.00000000000000E+00   0.00000000000000E+00  -4.36375901898627E-20