DF-ISE text

Info {
  version   = 1.0
  type      = xyplot
  datasets  = [
    "time"
    "substrate OuterVoltage" "substrate InnerVoltage" "substrate QuasiFermiPotential" "substrate DisplacementCurrent" "substrate eCurrent"
    "substrate hCurrent" "substrate TotalCurrent" "substrate Charge" "source OuterVoltage" "source InnerVoltage"
    "source QuasiFermiPotential" "source DisplacementCurrent" "source eCurrent" "source hCurrent" "source TotalCurrent"
    "source Charge" "drain OuterVoltage" "drain InnerVoltage" "drain QuasiFermiPotential" "drain DisplacementCurrent"
    "drain eCurrent" "drain hCurrent" "drain TotalCurrent" "drain Charge" "gate OuterVoltage"
    "gate InnerVoltage" "gate QuasiFermiPotential" "gate DisplacementCurrent" "gate eCurrent" "gate hCurrent"
    "gate TotalCurrent" "gate Charge" ]
  functions = [
    Time
    OuterVoltage InnerVoltage QuasiFermiPotential DisplacementCurrent eCurrent
    hCurrent TotalCurrent Charge OuterVoltage InnerVoltage
    QuasiFermiPotential DisplacementCurrent eCurrent hCurrent TotalCurrent
    Charge OuterVoltage InnerVoltage QuasiFermiPotential DisplacementCurrent
    eCurrent hCurrent TotalCurrent Charge OuterVoltage
    InnerVoltage QuasiFermiPotential DisplacementCurrent eCurrent hCurrent
    TotalCurrent Charge ]
}

Data {
      0.00000000000000E+00
      0.00000000000000E+00   0.00000000000000E+00   0.00000000000000E+00   0.00000000000000E+00   5.79687966352195E-32
     -9.85183517785678E-29  -9.84603829819326E-29  -1.01987743378357E-14   0.00000000000000E+00   0.00000000000000E+00
      0.00000000000000E+00   0.00000000000000E+00  -1.60582393817150E-31   6.96169997753200E-28   6.96009415359383E-28
      4.34190158082064E-15   0.00000000000000E+00   0.00000000000000E+00   0.00000000000000E+00   0.00000000000000E+00
      8.56714891392227E-32  -5.97634703866589E-28  -5.97549032377450E-28   4.34190158082064E-15   1.00000000000000E+00
      1.00000000000000E+00   0.00000000000000E+00   0.00000000000000E+00   0.00000000000000E+00   0.00000000000000E+00
      0.00000000000000E+00   1.51497117619437E-15
      1.00000000000000E-02
      0.00000000000000E+00   0.00000000000000E+00   0.00000000000000E+00   0.00000000000000E+00  -2.06905744763913E-20
     -8.10347647076797E-17  -8.10554552821561E-17  -1.03306258758929E-14   0.00000000000000E+00   0.00000000000000E+00
      0.00000000000000E+00   0.00000000000000E+00  -6.79829334488998E-21   1.15126130502102E-28  -6.79829322976385E-21
      4.34190158082048E-15   3.00000000000000E-02   3.00000000000000E-02   0.00000000000000E+00   0.00000000000000E+00
      8.10734760385130E-17  -1.12224631269210E-20   8.10622535753861E-17   4.47444518682151E-15   1.00000000000000E+00
      1.00000000000000E+00   0.00000000000000E+00   0.00000000000000E+00   0.00000000000000E+00   0.00000000000000E+00
      0.00000000000000E+00   1.51427910825089E-15
      2.36666666666667E-02
      0.00000000000000E+00   0.00000000000000E+00   0.00000000000000E+00   0.00000000000000E+00  -2.77304071937746E-20
     -2.26010608102872E-16  -2.26038338510066E-16  -1.05100360312672E-14   0.00000000000000E+00   0.00000000000000E+00
      0.00000000000000E+00   0.00000000000000E+00  -9.10552136701708E-21  -2.01552970061756E-29  -9.10552138717238E-21
      4.34190158082018E-15   7.10000000000000E-02   7.10000000000000E-02   0.00000000000000E+00   0.00000000000000E+00
      2.26034331038781E-16   1.31129926727548E-20   2.26047444031453E-16   4.65480107030911E-15   1.00000000000000E+00
      1.00000000000000E+00   0.00000000000000E+00   0.00000000000000E+00   0.00000000000000E+00   0.00000000000000E+00
      0.00000000000000E+00   1.51333338013786E-15
      4.37111111111111E-02
      0.00000000000000E+00   0.00000000000000E+00   0.00000000000000E+00   0.00000000000000E+00  -2.87670254323046E-20
     -6.73465283859256E-16  -6.73494050884689E-16  -1.07710718224591E-14   0.00000000000000E+00   0.00000000000000E+00
      0.00000000000000E+00   0.00000000000000E+00  -9.43181965730157E-21  -2.67631767213137E-28  -9.43181992493333E-21
      4.34190158081927E-15   1.31133333333333E-01   1.31133333333333E-01   0.00000000000000E+00   0.00000000000000E+00
      6.73479901257428E-16   2.35814471858891E-20   6.73503482704614E-16   4.91722371962949E-15   1.00000000000000E+00
      1.00000000000000E+00   0.00000000000000E+00   0.00000000000000E+00   0.00000000000000E+00   0.00000000000000E+00
      0.00000000000000E+00   1.51194652201032E-15
      6.87111111111111E-02
      0.00000000000000E+00   0.00000000000000E+00   0.00000000000000E+00   0.00000000000000E+00  -2.85624216674941E-20
     -2.24874366342725E-15  -2.24877222584891E-15  -1.10919064955932E-14   0.00000000000000E+00   0.00000000000000E+00
      0.00000000000000E+00   0.00000000000000E+00  -9.36354623899833E-21  -6.15167535803756E-28  -9.36354685416587E-21
      4.34190158081607E-15   2.06133333333333E-01   2.06133333333333E-01   0.00000000000000E+00   0.00000000000000E+00
      2.24875813253130E-15   2.34568644695963E-20   2.24878158939577E-15   5.23978776082222E-15   1.00000000000000E+00
      1.00000000000000E+00   0.00000000000000E+00   0.00000000000000E+00   0.00000000000000E+00   0.00000000000000E+00
      0.00000000000000E+00   1.51021715395488E-15
      9.37111111111111E-02
      0.00000000000000E+00   0.00000000000000E+00   0.00000000000000E+00   0.00000000000000E+00  -2.85645989677116E-20
     -5.82410042140354E-15  -5.82412898600251E-15  -1.14063425642222E-14   0.00000000000000E+00   0.00000000000000E+00
      0.00000000000000E+00   0.00000000000000E+00  -9.35995306279626E-21   1.58920195740445E-28  -9.35995290387607E-21
      4.34190158080880E-15   2.81133333333333E-01   2.81133333333333E-01   0.00000000000000E+00   0.00000000000000E+00
      5.82411472638693E-15   2.36195684848518E-20   5.82413834595541E-15   5.55595278184592E-15   1.00000000000000E+00
      1.00000000000000E+00   0.00000000000000E+00   0.00000000000000E+00   0.00000000000000E+00   0.00000000000000E+00
      0.00000000000000E+00   1.50848820156747E-15
      1.18711111111111E-01
      0.00000000000000E+00   0.00000000000000E+00   0.00000000000000E+00   0.00000000000000E+00  -2.85892502623734E-20
     -1.00467055464634E-14  -1.00467341357136E-14  -1.17153193128617E-14   0.00000000000000E+00   0.00000000000000E+00
      0.00000000000000E+00   0.00000000000000E+00  -9.36508483874205E-21   2.49667736889803E-28  -9.36508458907431E-21
      4.34190158080021E-15   3.56133333333333E-01   3.56133333333333E-01   0.00000000000000E+00   0.00000000000000E+00
      1.00467197360843E-14   2.37647139102926E-20   1.00467435007982E-14   5.86665805040709E-15   1.00000000000000E+00
      1.00000000000000E+00   0.00000000000000E+00   0.00000000000000E+00   0.00000000000000E+00   0.00000000000000E+00
      0.00000000000000E+00   1.50675968165439E-15
      1.43711111111111E-01
      0.00000000000000E+00   0.00000000000000E+00   0.00000000000000E+00   0.00000000000000E+00  -2.86082390351248E-20
     -1.24456135335442E-14  -1.24456421417832E-14  -1.20209061247149E-14   0.00000000000000E+00   0.00000000000000E+00
      0.00000000000000E+00   0.00000000000000E+00  -9.36931761477221E-21  -2.60907046852971E-28  -9.36931787567926E-21
      4.34190158079533E-15   4.31133333333333E-01   4.31133333333333E-01   0.00000000000000E+00   0.00000000000000E+00
      1.24456276136337E-14   2.38974674229772E-20   1.24456515111011E-14   6.17397293236491E-15   1.00000000000000E+00
      1.00000000000000E+00   0.00000000000000E+00   0.00000000000000E+00   0.00000000000000E+00   0.00000000000000E+00
      0.00000000000000E+00   1.50503161155465E-15
      1.68711111111111E-01
      0.00000000000000E+00   0.00000000000000E+00   0.00000000000000E+00   0.00000000000000E+00  -2.86244582016084E-20
     -1.33682072698845E-14  -1.33682358943427E-14  -1.23239744486645E-14   0.00000000000000E+00   0.00000000000000E+00
      0.00000000000000E+00   0.00000000000000E+00  -9.37329585377977E-21  -2.82311514738670E-28  -9.37329613609129E-21
      4.34190158079346E-15   5.06133333333333E-01   5.06133333333333E-01   0.00000000000000E+00   0.00000000000000E+00
      1.33682212467529E-14   2.40208859663282E-20   1.33682452676389E-14   6.47876885874632E-15   1.00000000000000E+00
      1.00000000000000E+00   0.00000000000000E+00   0.00000000000000E+00   0.00000000000000E+00   0.00000000000000E+00
      0.00000000000000E+00   1.50330400912475E-15
      1.93711111111111E-01
      0.00000000000000E+00   0.00000000000000E+00   0.00000000000000E+00   0.00000000000000E+00  -2.86406443511229E-20
     -1.39837910420633E-14  -1.39838196827076E-14  -1.26241293787500E-14   0.00000000000000E+00   0.00000000000000E+00
      0.00000000000000E+00   0.00000000000000E+00  -9.37779463516726E-21  -4.25648436602332E-28  -9.37779506081570E-21
      4.34190158079222E-15   5.81133333333333E-01   5.81133333333333E-01   0.00000000000000E+00   0.00000000000000E+00
      1.39838049201066E-14   2.41403961204998E-20   1.39838290605027E-14   6.78065090523958E-15   1.00000000000000E+00
      1.00000000000000E+00   0.00000000000000E+00   0.00000000000000E+00   0.00000000000000E+00   0.00000000000000E+00
      0.00000000000000E+00   1.50157689271816E-15
      2.18711111111111E-01
      0.00000000000000E+00   0.00000000000000E+00   0.00000000000000E+00   0.00000000000000E+00  -2.86580215560675E-20
     -1.55275304955208E-14  -1.55275591535424E-14  -1.29203838780641E-14   0.00000000000000E+00   0.00000000000000E+00
      0.00000000000000E+00   0.00000000000000E+00  -9.38313665770705E-21   1.25731809088510E-28  -9.38313653197525E-21
      4.34190158078913E-15   6.56133333333333E-01   6.56133333333333E-01   0.00000000000000E+00   0.00000000000000E+00
      1.55275442758518E-14   2.42608270815930E-20   1.55275685366789E-14   7.07863201612044E-15   1.00000000000000E+00
      1.00000000000000E+00   0.00000000000000E+00   0.00000000000000E+00   0.00000000000000E+00   0.00000000000000E+00
      0.00000000000000E+00   1.49985028115454E-15
      2.43711111111111E-01
      0.00000000000000E+00   0.00000000000000E+00   0.00000000000000E+00   0.00000000000000E+00  -2.86753686602326E-20
     -2.10671502667671E-14  -2.10671789421358E-14  -1.32122293057976E-14   0.00000000000000E+00   0.00000000000000E+00
      0.00000000000000E+00   0.00000000000000E+00  -9.38877373395893E-21  -5.23438968464526E-28  -9.38877425739790E-21
      4.34190158077805E-15   7.31133333333333E-01   7.31133333333333E-01   0.00000000000000E+00   0.00000000000000E+00
      2.10671639442589E-14   2.43866511272814E-20   2.10671883309100E-14   7.37220353134312E-15   1.00000000000000E+00
      1.00000000000000E+00   0.00000000000000E+00   0.00000000000000E+00   0.00000000000000E+00   0.00000000000000E+00
      0.00000000000000E+00   1.49812419367647E-15
      2.68711111111111E-01
      0.00000000000000E+00   0.00000000000000E+00   0.00000000000000E+00   0.00000000000000E+00  -2.86907161318737E-20
     -3.86048061760372E-14  -3.86048348667533E-14  -1.34998372143530E-14   0.00000000000000E+00   0.00000000000000E+00
      0.00000000000000E+00   0.00000000000000E+00  -9.39386470843461E-21   9.83091209316821E-29  -9.39386461012549E-21
      4.34190158074299E-15   8.06133333333333E-01   8.06133333333333E-01   0.00000000000000E+00   0.00000000000000E+00
      3.86048197380617E-14   2.45225563020758E-20   3.86048442606180E-14   7.66153698371724E-15   1.00000000000000E+00
      1.00000000000000E+00   0.00000000000000E+00   0.00000000000000E+00   0.00000000000000E+00   0.00000000000000E+00
      0.00000000000000E+00   1.49639864989275E-15
      2.93711111111111E-01
      0.00000000000000E+00   0.00000000000000E+00   0.00000000000000E+00   0.00000000000000E+00  -2.87036049549228E-20
     -7.43351404265025E-14  -7.43351691301074E-14  -1.37825040255679E-14   0.00000000000000E+00   0.00000000000000E+00
      0.00000000000000E+00   0.00000000000000E+00  -9.39822067555159E-21   6.14036892964224E-28  -9.39822006151470E-21
      4.34190158067154E-15   8.81133333333333E-01   8.81133333333333E-01   0.00000000000000E+00   0.00000000000000E+00
      7.43351538554842E-14   2.46728433700647E-20   7.43351785283276E-14   7.94592877518472E-15   1.00000000000000E+00
      1.00000000000000E+00   0.00000000000000E+00   0.00000000000000E+00   0.00000000000000E+00   0.00000000000000E+00
      0.00000000000000E+00   1.49467366971167E-15
      3.18711111111111E-01
      0.00000000000000E+00   0.00000000000000E+00   0.00000000000000E+00   0.00000000000000E+00  -2.87145247841736E-20
     -1.08400221790460E-13  -1.08400250504985E-13  -1.40581844142861E-14   0.00000000000000E+00   0.00000000000000E+00
      0.00000000000000E+00   0.00000000000000E+00  -9.40195612641599E-21   1.85892158209924E-28  -9.40195594052383E-21
      4.34190158060343E-15   9.56133333333333E-01   9.56133333333333E-01   0.00000000000000E+00   0.00000000000000E+00
      1.08400235069518E-13   2.48374227043078E-20   1.08400259906941E-13   8.22333356041621E-15   1.00000000000000E+00
      1.00000000000000E+00   0.00000000000000E+00   0.00000000000000E+00   0.00000000000000E+00   0.00000000000000E+00
      0.00000000000000E+00   1.49294927326644E-15
      3.43711111111111E-01
      0.00000000000000E+00   0.00000000000000E+00   0.00000000000000E+00   0.00000000000000E+00  -2.87238366670840E-20
     -1.24065440193395E-13  -1.24065468917232E-13  -1.43249791315318E-14   0.00000000000000E+00   0.00000000000000E+00
      0.00000000000000E+00   0.00000000000000E+00  -9.40514522426927E-21  -4.82229092943416E-29  -9.40514527249218E-21
      4.34190158057211E-15   1.03113333333333E+00   1.03113333333333E+00   0.00000000000000E+00   0.00000000000000E+00
      1.24065453316002E-13   2.50063748945589E-20   1.24065478322377E-13   8.49185207016032E-15   1.00000000000000E+00
      1.00000000000000E+00   0.00000000000000E+00   0.00000000000000E+00   0.00000000000000E+00   0.00000000000000E+00
      0.00000000000000E+00   1.49122548079940E-15
      3.68711111111111E-01
      0.00000000000000E+00   0.00000000000000E+00   0.00000000000000E+00   0.00000000000000E+00  -2.87317480479600E-20
     -1.29327650536653E-13  -1.29327679268401E-13  -1.45841732300916E-14   0.00000000000000E+00   0.00000000000000E+00
      0.00000000000000E+00   0.00000000000000E+00  -9.40784543600833E-21  -9.71649890869924E-29  -9.40784553317332E-21
      4.34190158056157E-15   1.10613333333333E+00   1.10613333333333E+00   0.00000000000000E+00   0.00000000000000E+00
      1.29327663515652E-13   2.51605949730579E-20   1.29327688676247E-13   8.75276933699796E-15   1.00000000000000E+00
      1.00000000000000E+00   0.00000000000000E+00   0.00000000000000E+00   0.00000000000000E+00   0.00000000000000E+00
      0.00000000000000E+00   1.48950231253208E-15
      3.93711111111111E-01
      0.00000000000000E+00   0.00000000000000E+00   0.00000000000000E+00   0.00000000000000E+00  -2.87382380012295E-20
     -1.32717161129566E-13  -1.32717189867804E-13  -1.48394062460102E-14   0.00000000000000E+00   0.00000000000000E+00
      0.00000000000000E+00   0.00000000000000E+00  -9.41003631435300E-21  -3.67947535112801E-28  -9.41003668230054E-21
      4.34190158055475E-15   1.18113333333333E+00   1.18113333333333E+00   0.00000000000000E+00   0.00000000000000E+00
      1.32717173988526E-13   2.52893141980370E-20   1.32717199277840E-13   9.00972487691656E-15   1.00000000000000E+00
      1.00000000000000E+00   0.00000000000000E+00   0.00000000000000E+00   0.00000000000000E+00   0.00000000000000E+00
      0.00000000000000E+00   1.48777978853894E-15
      4.18711111111111E-01
      0.00000000000000E+00   0.00000000000000E+00   0.00000000000000E+00   0.00000000000000E+00  -2.87501899973170E-20
     -1.39934494935627E-13  -1.39934523685817E-13  -1.50930075641779E-14   0.00000000000000E+00   0.00000000000000E+00
      0.00000000000000E+00   0.00000000000000E+00  -9.41143293100894E-21  -6.17988102187648E-29  -9.41143299280775E-21
      4.34190158054015E-15   1.25613333333333E+00   1.25613333333333E+00   0.00000000000000E+00   0.00000000000000E+00
      1.39934507788176E-13   2.53090742738439E-20   1.39934533097250E-13   9.26504805504261E-15   1.00000000000000E+00
      1.00000000000000E+00   0.00000000000000E+00   0.00000000000000E+00   0.00000000000000E+00   0.00000000000000E+00
      0.00000000000000E+00   1.48605792859516E-15
      4.43711111111111E-01
      0.00000000000000E+00   0.00000000000000E+00   0.00000000000000E+00   0.00000000000000E+00  -2.89959505828942E-20
     -1.52096177104195E-13  -1.52096206100146E-13  -1.53457376642802E-14   0.00000000000000E+00   0.00000000000000E+00
      0.00000000000000E+00   0.00000000000000E+00  -9.41149619650292E-21   5.64103979887263E-28  -9.41149563239894E-21
      4.34190158051554E-15   1.33113333333333E+00   1.33113333333333E+00   0.00000000000000E+00   0.00000000000000E+00
      1.52096190028173E-13   2.54834679568193E-20   1.52096215511641E-13   9.51949933175515E-15   1.00000000000000E+00
      1.00000000000000E+00   0.00000000000000E+00   0.00000000000000E+00   0.00000000000000E+00   0.00000000000000E+00
      0.00000000000000E+00   1.48433675200947E-15
      4.68711111111111E-01
      0.00000000000000E+00   0.00000000000000E+00   0.00000000000000E+00   0.00000000000000E+00  -2.90745060057316E-20
     -1.62095772463703E-13  -1.62095801538209E-13  -1.55977149851356E-14   0.00000000000000E+00   0.00000000000000E+00
      0.00000000000000E+00   0.00000000000000E+00  -9.41037486018055E-21  -1.03474093134706E-28  -9.41037496365464E-21
      4.34190158049535E-15   1.40613333333333E+00   1.40613333333333E+00   0.00000000000000E+00   0.00000000000000E+00
      1.62095785383961E-13   2.55646224974264E-20   1.62095810948584E-13   9.77319712719338E-15   1.00000000000000E+00
      1.00000000000000E+00   0.00000000000000E+00   0.00000000000000E+00   0.00000000000000E+00   0.00000000000000E+00
      0.00000000000000E+00   1.48261627744689E-15
      4.93711111111111E-01
      0.00000000000000E+00   0.00000000000000E+00   0.00000000000000E+00   0.00000000000000E+00  -2.87590016202279E-20
     -1.72798889784934E-13  -1.72798918543936E-13  -1.58488397076055E-14   0.00000000000000E+00   0.00000000000000E+00
      0.00000000000000E+00   0.00000000000000E+00  -9.40892008707588E-21  -3.29156803309121E-28  -9.40892041623269E-21
      4.34190158047385E-15   1.48113333333333E+00   1.48113333333333E+00   0.00000000000000E+00   0.00000000000000E+00
      1.72798902315285E-13   2.56375704921396E-20   1.72798927952856E-13   1.00260416043964E-14   1.00000000000000E+00
      1.00000000000000E+00   0.00000000000000E+00   0.00000000000000E+00   0.00000000000000E+00   0.00000000000000E+00
      0.00000000000000E+00   1.48089652273522E-15
      5.18711111111111E-01
      0.00000000000000E+00   0.00000000000000E+00   0.00000000000000E+00   0.00000000000000E+00  -2.87362651686245E-20
     -1.99786252168943E-13  -1.99786280905208E-13  -1.60989010571353E-14   0.00000000000000E+00   0.00000000000000E+00
      0.00000000000000E+00   0.00000000000000E+00  -9.40762209967564E-21   7.51541001341599E-29  -9.40762202452154E-21
      4.34190158041976E-15   1.55613333333333E+00   1.55613333333333E+00   0.00000000000000E+00   0.00000000000000E+00
      1.99786264606536E-13   2.57062940685112E-20   1.99786290312831E-13   1.02778219720370E-14   1.00000000000000E+00
      1.00000000000000E+00   0.00000000000000E+00   0.00000000000000E+00   0.00000000000000E+00   0.00000000000000E+00
      0.00000000000000E+00   1.47917750467855E-15
      5.43711111111111E-01
      0.00000000000000E+00   0.00000000000000E+00   0.00000000000000E+00   0.00000000000000E+00  -2.87341519762168E-20
     -2.57329858718811E-13  -2.57329887452963E-13  -1.63475728889219E-14   0.00000000000000E+00   0.00000000000000E+00
      0.00000000000000E+00   0.00000000000000E+00  -9.40660582700219E-21  -5.67788324929552E-29  -9.40660588378103E-21
      4.34190158030446E-15   1.63113333333333E+00   1.63113333333333E+00   0.00000000000000E+00   0.00000000000000E+00
      2.57329871273831E-13   2.55857373733612E-20   2.57329896859569E-13   1.05282120697314E-14   1.00000000000000E+00
      1.00000000000000E+00   0.00000000000000E+00   0.00000000000000E+00   0.00000000000000E+00   0.00000000000000E+00
      0.00000000000000E+00   1.47745923888599E-15
      5.68711111111111E-01
      0.00000000000000E+00   0.00000000000000E+00   0.00000000000000E+00   0.00000000000000E+00  -2.87324891093161E-20
     -3.17425576532690E-13  -3.17425605265179E-13  -1.65943537761466E-14   0.00000000000000E+00   0.00000000000000E+00
      0.00000000000000E+00   0.00000000000000E+00  -9.40583263320604E-21   1.39231219750608E-28  -9.40583249397482E-21
      4.34190158018406E-15   1.70613333333333E+00   1.70613333333333E+00   0.00000000000000E+00   0.00000000000000E+00
      3.17425590447683E-13   2.42233285176210E-20   3.17425614671012E-13   1.07767104563337E-14   1.00000000000000E+00
      1.00000000000000E+00   0.00000000000000E+00   0.00000000000000E+00   0.00000000000000E+00   0.00000000000000E+00
      0.00000000000000E+00   1.47574173962879E-15
      5.93711111111111E-01
      0.00000000000000E+00   0.00000000000000E+00   0.00000000000000E+00   0.00000000000000E+00  -2.87317431224570E-20
     -3.46892617449122E-13  -3.46892646180865E-13  -1.68384456669099E-14   0.00000000000000E+00   0.00000000000000E+00
      0.00000000000000E+00   0.00000000000000E+00  -9.40523457550985E-21   6.66572364433717E-28  -9.40523390893748E-21
      4.34190158012502E-15   1.78113333333333E+00   1.78113333333333E+00   0.00000000000000E+00   0.00000000000000E+00
      3.46892629668130E-13   2.59179692012284E-20   3.46892655586099E-13   1.10225190670972E-14   1.00000000000000E+00
      1.00000000000000E+00   0.00000000000000E+00   0.00000000000000E+00   0.00000000000000E+00   0.00000000000000E+00
      0.00000000000000E+00   1.47402501968766E-15
      6.18711111111111E-01
      0.00000000000000E+00   0.00000000000000E+00   0.00000000000000E+00   0.00000000000000E+00  -2.87311661286851E-20
     -3.56179896393516E-13  -3.56179925124682E-13  -1.70785515315666E-14   0.00000000000000E+00   0.00000000000000E+00
      0.00000000000000E+00   0.00000000000000E+00  -9.40479522365111E-21   2.63510431381590E-28  -9.40479496014068E-21
      4.34190158010641E-15   1.85613333333333E+00   1.85613333333333E+00   0.00000000000000E+00   0.00000000000000E+00
      3.56179908540058E-13   2.59894191626305E-20   3.56179934529477E-13   1.12643408612316E-14   1.00000000000000E+00
      1.00000000000000E+00   0.00000000000000E+00   0.00000000000000E+00   0.00000000000000E+00   0.00000000000000E+00
      0.00000000000000E+00   1.47230909022859E-15
      6.43711111111111E-01
      0.00000000000000E+00   0.00000000000000E+00   0.00000000000000E+00   0.00000000000000E+00  -2.87309388810310E-20
     -3.58670889781462E-13  -3.58670918512401E-13  -1.73126900326579E-14   0.00000000000000E+00   0.00000000000000E+00
      0.00000000000000E+00   0.00000000000000E+00  -9.40450204140326E-21  -4.73571515630709E-29  -9.40450208876041E-21
      4.34190158010143E-15   1.93113333333333E+00   1.93113333333333E+00   0.00000000000000E+00   0.00000000000000E+00
      3.58670901851615E-13   2.60652874921739E-20   3.58670927916903E-13   1.15001944917904E-14   1.00000000000000E+00
      1.00000000000000E+00   0.00000000000000E+00   0.00000000000000E+00   0.00000000000000E+00   0.00000000000000E+00
      0.00000000000000E+00   1.47059396076614E-15
      6.68711111111111E-01
      0.00000000000000E+00   0.00000000000000E+00   0.00000000000000E+00   0.00000000000000E+00  -2.87309888513060E-20
     -3.59310761036608E-13  -3.59310789767597E-13  -1.75385435754429E-14   0.00000000000000E+00   0.00000000000000E+00
      0.00000000000000E+00   0.00000000000000E+00  -9.40433118502972E-21   1.26168975065763E-28  -9.40433105886075E-21
      4.34190158010015E-15   2.00613333333333E+00   2.00613333333333E+00   0.00000000000000E+00   0.00000000000000E+00
      3.59310773029095E-13   2.61428331518899E-20   3.59310799171928E-13   1.17277623561790E-14   1.00000000000000E+00
      1.00000000000000E+00   0.00000000000000E+00   0.00000000000000E+00   0.00000000000000E+00   0.00000000000000E+00
      0.00000000000000E+00   1.46887963916373E-15
      6.93711111111111E-01
      0.00000000000000E+00   0.00000000000000E+00   0.00000000000000E+00   0.00000000000000E+00  -2.87312433539425E-20
     -3.59478855409901E-13  -3.59478884141144E-13  -1.77544628138835E-14   0.00000000000000E+00   0.00000000000000E+00
      0.00000000000000E+00   0.00000000000000E+00  -9.40425414984860E-21  -5.24871038804720E-28  -9.40425467471964E-21
      4.34190158009981E-15   2.08113333333333E+00   2.08113333333333E+00   0.00000000000000E+00   0.00000000000000E+00
      3.59478867329417E-13   2.62159812266396E-20   3.59478893545398E-13   1.19453951020984E-14   1.00000000000000E+00
      1.00000000000000E+00   0.00000000000000E+00   0.00000000000000E+00   0.00000000000000E+00   0.00000000000000E+00
      0.00000000000000E+00   1.46716613168529E-15
      7.18711111111111E-01
      0.00000000000000E+00   0.00000000000000E+00   0.00000000000000E+00   0.00000000000000E+00  -2.87316459850655E-20
     -3.59543288156959E-13  -3.59543316888605E-13  -1.79600882474199E-14   0.00000000000000E+00   0.00000000000000E+00
      0.00000000000000E+00   0.00000000000000E+00  -9.40425122003038E-21   3.86324356140980E-28  -9.40425083370603E-21
      4.34190158009969E-15   2.15613333333333E+00   2.15613333333333E+00   0.00000000000000E+00   0.00000000000000E+00
      3.59543300011247E-13   2.62816079950319E-20   3.59543326292855E-13   1.21527332242118E-14   1.00000000000000E+00
      1.00000000000000E+00   0.00000000000000E+00   0.00000000000000E+00   0.00000000000000E+00   0.00000000000000E+00
      0.00000000000000E+00   1.46545344310846E-15
      7.43711111111111E-01
      0.00000000000000E+00   0.00000000000000E+00   0.00000000000000E+00   0.00000000000000E+00  -2.87322083003838E-20
     -3.59644873134918E-13  -3.59644901867126E-13  -1.81569518327463E-14   0.00000000000000E+00   0.00000000000000E+00
      0.00000000000000E+00   0.00000000000000E+00  -9.40431922787333E-21   1.01476984309236E-28  -9.40431912639634E-21
      4.34190158009948E-15   2.23113333333333E+00   2.23113333333333E+00   0.00000000000000E+00   0.00000000000000E+00
      3.59644884931353E-13   2.63400921244029E-20   3.59644911271445E-13   1.23513086757492E-14   1.00000000000000E+00
      1.00000000000000E+00   0.00000000000000E+00   0.00000000000000E+00   0.00000000000000E+00   0.00000000000000E+00
      0.00000000000000E+00   1.46374157689765E-15
      7.68711111111111E-01
      0.00000000000000E+00   0.00000000000000E+00   0.00000000000000E+00   0.00000000000000E+00  -2.87329188047973E-20
     -3.60011608050493E-13  -3.60011636783412E-13  -1.83480418005974E-14   0.00000000000000E+00   0.00000000000000E+00
      0.00000000000000E+00   0.00000000000000E+00  -9.40445719262286E-21  -3.68582825714463E-28  -9.40445756120568E-21
      4.34190158009875E-15   2.30613333333333E+00   2.30613333333333E+00   0.00000000000000E+00   0.00000000000000E+00
      3.60011619797515E-13   2.63903552203537E-20   3.60011646187870E-13   1.25441096850678E-14   1.00000000000000E+00
      1.00000000000000E+00   0.00000000000000E+00   0.00000000000000E+00   0.00000000000000E+00   0.00000000000000E+00
      0.00000000000000E+00   1.46203053543085E-15
      7.93711111111111E-01
      0.00000000000000E+00   0.00000000000000E+00   0.00000000000000E+00   0.00000000000000E+00  -2.87337726200907E-20
     -3.61468034010810E-13  -3.61468062744582E-13  -1.85363629562111E-14   0.00000000000000E+00   0.00000000000000E+00
      0.00000000000000E+00   0.00000000000000E+00  -9.40466285382806E-21  -3.38171929862019E-28  -9.40466319199999E-21
      4.34190158009582E-15   2.38113333333333E+00   2.38113333333333E+00   0.00000000000000E+00   0.00000000000000E+00
      3.61468045716945E-13   2.64323003589393E-20   3.61468072149245E-13   1.27341410558422E-14   1.00000000000000E+00
      1.00000000000000E+00   0.00000000000000E+00   0.00000000000000E+00   0.00000000000000E+00   0.00000000000000E+00
      0.00000000000000E+00   1.46032032027302E-15
      8.18711111111112E-01
      0.00000000000000E+00   0.00000000000000E+00   0.00000000000000E+00   0.00000000000000E+00  -2.87347668117656E-20
     -3.67094113711385E-13  -3.67094142446152E-13  -1.87236465988561E-14   0.00000000000000E+00   0.00000000000000E+00
      0.00000000000000E+00   0.00000000000000E+00  -9.40493703375661E-21   2.67094496970803E-29  -9.40493700704716E-21
      4.34190158008450E-15   2.45613333333333E+00   2.45613333333333E+00   0.00000000000000E+00   0.00000000000000E+00
      3.67094125383705E-13   2.64673835323202E-20   3.67094151851089E-13   1.29231340862832E-14   1.00000000000000E+00
      1.00000000000000E+00   0.00000000000000E+00   0.00000000000000E+00   0.00000000000000E+00   0.00000000000000E+00
      0.00000000000000E+00   1.45861093248839E-15
      8.43711111111112E-01
      0.00000000000000E+00   0.00000000000000E+00   0.00000000000000E+00   0.00000000000000E+00  -2.87358949737387E-20
     -3.86123964679733E-13  -3.86123993415628E-13  -1.89105603545679E-14   0.00000000000000E+00   0.00000000000000E+00
      0.00000000000000E+00   0.00000000000000E+00  -9.40528856487244E-21  -1.59467978053267E-28  -9.40528872434042E-21
      4.34190158004619E-15   2.53113333333333E+00   2.53113333333333E+00   0.00000000000000E+00   0.00000000000000E+00
      3.86123976323901E-13   2.64970167221800E-20   3.86124002820918E-13   1.31117564015451E-14   1.00000000000000E+00
      1.00000000000000E+00   0.00000000000000E+00   0.00000000000000E+00   0.00000000000000E+00   0.00000000000000E+00
      0.00000000000000E+00   1.45690237297656E-15
      8.68711111111112E-01
      0.00000000000000E+00   0.00000000000000E+00   0.00000000000000E+00   0.00000000000000E+00  -2.87371517303288E-20