DF-ISE text

Info {
  version   = 1.0
  type      = xyplot
  datasets  = [
    "time"
    "substrate OuterVoltage" "substrate InnerVoltage" "substrate QuasiFermiPotential" "substrate DisplacementCurrent" "substrate eCurrent"
    "substrate hCurrent" "substrate TotalCurrent" "substrate Charge" "source OuterVoltage" "source InnerVoltage"
    "source QuasiFermiPotential" "source DisplacementCurrent" "source eCurrent" "source hCurrent" "source TotalCurrent"
    "source Charge" "drain OuterVoltage" "drain InnerVoltage" "drain QuasiFermiPotential" "drain DisplacementCurrent"
    "drain eCurrent" "drain hCurrent" "drain TotalCurrent" "drain Charge" "gate OuterVoltage"
    "gate InnerVoltage" "gate QuasiFermiPotential" "gate DisplacementCurrent" "gate eCurrent" "gate hCurrent"
    "gate TotalCurrent" "gate Charge" ]
  functions = [
    Time
    OuterVoltage InnerVoltage QuasiFermiPotential DisplacementCurrent eCurrent
    hCurrent TotalCurrent Charge OuterVoltage InnerVoltage
    QuasiFermiPotential DisplacementCurrent eCurrent hCurrent TotalCurrent
    Charge OuterVoltage InnerVoltage QuasiFermiPotential DisplacementCurrent
    eCurrent hCurrent TotalCurrent Charge OuterVoltage
    InnerVoltage QuasiFermiPotential DisplacementCurrent eCurrent hCurrent
    TotalCurrent Charge ]
}

Data {
      0.00000000000000E+00
      0.00000000000000E+00   0.00000000000000E+00   0.00000000000000E+00   0.00000000000000E+00   7.34738530080635E-18
     -1.92222725655925E-28   7.34738530061412E-18  -5.34373718265035E-15   0.00000000000000E+00   0.00000000000000E+00
      0.00000000000000E+00   0.00000000000000E+00  -7.62573291452860E-19   3.67807348917566E-28  -7.62573291085053E-19
     -6.29646010868180E-16   0.00000000000000E+00   0.00000000000000E+00   0.00000000000000E+00   0.00000000000000E+00
     -6.58481200935332E-18  -1.75748591917931E-28  -6.58481200952907E-18  -6.29646010868180E-16   6.00000000000000E+00
      6.00000000000000E+00   0.00000000000000E+00   0.00000000000000E+00   0.00000000000000E+00   0.00000000000000E+00
      0.00000000000000E+00   6.60302920438671E-15
      1.00000000000000E-02
      0.00000000000000E+00   0.00000000000000E+00   0.00000000000000E+00   0.00000000000000E+00   1.86306311966611E-17
     -1.23818625442028E-16  -1.05187994245366E-16  -5.36176785507746E-15   0.00000000000000E+00   0.00000000000000E+00
      0.00000000000000E+00   0.00000000000000E+00  -2.28292819247898E-04  -1.63977304835809E-23  -2.28292819247898E-04
     -6.28866421493672E-16   3.00000000000000E-02   3.00000000000000E-02   0.00000000000000E+00   0.00000000000000E+00
      2.28292819248003E-04   9.77156061727051E-21   2.28292819248003E-04  -5.94168044835561E-16   6.00000000000000E+00
      6.00000000000000E+00   0.00000000000000E+00   0.00000000000000E+00   0.00000000000000E+00   0.00000000000000E+00
      0.00000000000000E+00   6.58480232140668E-15
      2.33333333333333E-02
      0.00000000000000E+00   0.00000000000000E+00   0.00000000000000E+00   0.00000000000000E+00   3.88413504408432E-15
     -2.69955576651811E-16   3.61417946743250E-15  -5.38554622501448E-15   0.00000000000000E+00   0.00000000000000E+00
      0.00000000000000E+00   0.00000000000000E+00  -5.06184695606186E-04  -3.68465730484612E-23  -5.06184695606186E-04
     -6.28044151057875E-16   7.00000000000000E-02   7.00000000000000E-02   0.00000000000000E+00   0.00000000000000E+00
      5.06184695602572E-04   1.30246611466425E-20   5.06184695602572E-04  -5.46935765223864E-16   6.00000000000000E+00
      6.00000000000000E+00   0.00000000000000E+00   0.00000000000000E+00   0.00000000000000E+00   0.00000000000000E+00
      0.00000000000000E+00   6.56052614129621E-15
      4.28888888888889E-02
      0.00000000000000E+00   0.00000000000000E+00   0.00000000000000E+00   0.00000000000000E+00   8.15449974692572E-18
     -4.43558431127265E-16  -4.35403931380339E-16  -5.41991790109968E-15   0.00000000000000E+00   0.00000000000000E+00
      0.00000000000000E+00   0.00000000000000E+00  -8.62329484735821E-04  -6.21257445690655E-23  -8.62329484735821E-04
     -6.27254246718997E-16   1.28666666666667E-01   1.28666666666667E-01   0.00000000000000E+00   0.00000000000000E+00
      8.62329484736257E-04   1.36681898531659E-20   8.62329484736257E-04  -4.77817641992141E-16   6.00000000000000E+00
      6.00000000000000E+00   0.00000000000000E+00   0.00000000000000E+00   0.00000000000000E+00   0.00000000000000E+00
      0.00000000000000E+00   6.52498978981080E-15
      6.78888888888889E-02
      0.00000000000000E+00   0.00000000000000E+00   0.00000000000000E+00   0.00000000000000E+00   1.69884527048034E-17
     -5.79880551343831E-16  -5.62892098639028E-16  -5.46307727778436E-15   0.00000000000000E+00   0.00000000000000E+00
      0.00000000000000E+00   0.00000000000000E+00  -1.24087687567125E-03  -8.95355642266623E-23  -1.24087687567125E-03
     -6.26853174519436E-16   2.03666666666667E-01   2.03666666666667E-01   0.00000000000000E+00   0.00000000000000E+00
      1.24087687567181E-03   1.38405128440958E-20   1.24087687567181E-03  -3.89784961957290E-16   6.00000000000000E+00
      6.00000000000000E+00   0.00000000000000E+00   0.00000000000000E+00   0.00000000000000E+00   0.00000000000000E+00
      0.00000000000000E+00   6.47971541426108E-15
      9.28888888888889E-02
      0.00000000000000E+00   0.00000000000000E+00   0.00000000000000E+00   0.00000000000000E+00   4.98334377729896E-18
     -6.56099021459001E-16  -6.51115677681702E-16  -5.50546689511205E-15   0.00000000000000E+00   0.00000000000000E+00
      0.00000000000000E+00   0.00000000000000E+00  -1.54891373086114E-03  -1.11885119633598E-22  -1.54891373086114E-03
     -6.26992855148400E-16   2.78666666666667E-01   2.78666666666667E-01   0.00000000000000E+00   0.00000000000000E+00
      1.54891373086179E-03   1.40950782062677E-20   1.54891373086179E-03  -3.02209597843009E-16   6.00000000000000E+00
      6.00000000000000E+00   0.00000000000000E+00   0.00000000000000E+00   0.00000000000000E+00   0.00000000000000E+00
      0.00000000000000E+00   6.43466934810345E-15
      1.17888888888889E-01
      0.00000000000000E+00   0.00000000000000E+00   0.00000000000000E+00   0.00000000000000E+00   3.10321732957969E-17
     -7.00211888867426E-16  -6.69179715571629E-16  -5.54718366821137E-15   0.00000000000000E+00   0.00000000000000E+00
      0.00000000000000E+00   0.00000000000000E+00  -1.80047443309458E-03  -1.30161125859615E-22  -1.80047443309458E-03
     -6.27542534222736E-16   3.53666666666667E-01   3.53666666666667E-01   0.00000000000000E+00   0.00000000000000E+00
      1.80047443309525E-03   1.43102678573449E-20   1.80047443309525E-03  -2.15186611601652E-16   6.00000000000000E+00
      6.00000000000000E+00   0.00000000000000E+00   0.00000000000000E+00   0.00000000000000E+00   0.00000000000000E+00
      0.00000000000000E+00   6.38991281403575E-15
      1.42888888888889E-01
      0.00000000000000E+00   0.00000000000000E+00   0.00000000000000E+00   0.00000000000000E+00  -3.53357064124349E-17
     -7.31795091300733E-16  -7.67130797713168E-16  -5.58831200598665E-15   0.00000000000000E+00   0.00000000000000E+00
      0.00000000000000E+00   0.00000000000000E+00  -2.00676259300920E-03  -1.45161471545018E-22  -2.00676259300920E-03
     -6.28394634562288E-16   4.28666666666667E-01   4.28666666666667E-01   0.00000000000000E+00   0.00000000000000E+00
      2.00676259300997E-03   1.44859218573657E-20   2.00676259300997E-03  -1.28802113495334E-16   6.00000000000000E+00
      6.00000000000000E+00   0.00000000000000E+00   0.00000000000000E+00   0.00000000000000E+00   0.00000000000000E+00
      0.00000000000000E+00   6.34550875404427E-15
      1.67888888888889E-01
      0.00000000000000E+00   0.00000000000000E+00   0.00000000000000E+00   0.00000000000000E+00  -2.08389662697504E-17
     -7.60641134442352E-16  -7.81480100712102E-16  -5.62891402879688E-15   0.00000000000000E+00   0.00000000000000E+00
      0.00000000000000E+00   0.00000000000000E+00  -2.17663473083766E-03  -1.57522568582446E-22  -2.17663473083766E-03
     -6.29462415117523E-16   5.03666666666667E-01   5.03666666666667E-01   0.00000000000000E+00   0.00000000000000E+00
      2.17663473083844E-03   1.46291282272836E-20   2.17663473083844E-03  -4.31419577497044E-17   6.00000000000000E+00
      6.00000000000000E+00   0.00000000000000E+00   0.00000000000000E+00   0.00000000000000E+00   0.00000000000000E+00
      0.00000000000000E+00   6.30151840166409E-15
      1.92888888888889E-01
      0.00000000000000E+00   0.00000000000000E+00   0.00000000000000E+00   0.00000000000000E+00  -6.56873792887431E-18
     -7.85561329062592E-16  -7.92130066991466E-16  -5.66899865658368E-15   0.00000000000000E+00   0.00000000000000E+00
      0.00000000000000E+00   0.00000000000000E+00  -2.31712743645020E-03  -1.67751602511861E-22  -2.31712743645020E-03
     -6.30678000329316E-16   5.78666666666667E-01   5.78666666666667E-01   0.00000000000000E+00   0.00000000000000E+00
      2.31712743645099E-03   1.47467548850160E-20   2.31712743645099E-03   4.16726647728288E-17   6.00000000000000E+00
      6.00000000000000E+00   0.00000000000000E+00   0.00000000000000E+00   0.00000000000000E+00   0.00000000000000E+00
      0.00000000000000E+00   6.25800399214017E-15
      2.17888888888889E-01
      0.00000000000000E+00   0.00000000000000E+00   0.00000000000000E+00   0.00000000000000E+00   1.10991633274884E-17
     -8.04930367287514E-16  -7.93831203960026E-16  -5.70847082384834E-15   0.00000000000000E+00   0.00000000000000E+00
      0.00000000000000E+00   0.00000000000000E+00  -2.43383390173230E-03  -1.76251510594285E-22  -2.43383390173230E-03
     -6.31991185131967E-16   6.53666666666667E-01   6.53666666666667E-01   0.00000000000000E+00   0.00000000000000E+00
      2.43383390173310E-03   1.48436385645886E-20   2.43383390173310E-03   1.25439992862028E-16   6.00000000000000E+00
      6.00000000000000E+00   0.00000000000000E+00   0.00000000000000E+00   0.00000000000000E+00   0.00000000000000E+00
      0.00000000000000E+00   6.21502201611828E-15
      2.42888888888889E-01
      0.00000000000000E+00   0.00000000000000E+00   0.00000000000000E+00   0.00000000000000E+00   3.53358991205115E-17
     -8.24279471027549E-16  -7.88943571907037E-16  -5.74710593517984E-15   0.00000000000000E+00   0.00000000000000E+00
      0.00000000000000E+00   0.00000000000000E+00  -2.53123684301804E-03  -1.83349228071850E-22  -2.53123684301804E-03
     -6.33366364581423E-16   7.28666666666667E-01   7.28666666666667E-01   0.00000000000000E+00   0.00000000000000E+00
      2.53123684301883E-03   1.49231050127665E-20   2.53123684301883E-03   2.07849205536570E-16   6.00000000000000E+00
      6.00000000000000E+00   0.00000000000000E+00   0.00000000000000E+00   0.00000000000000E+00   0.00000000000000E+00
      0.00000000000000E+00   6.17262309422468E-15
      2.67888888888889E-01
      0.00000000000000E+00   0.00000000000000E+00   0.00000000000000E+00   0.00000000000000E+00   2.94474950211800E-18
     -8.47466410707781E-16  -8.44521661205663E-16  -5.78459593980578E-15   0.00000000000000E+00   0.00000000000000E+00
      0.00000000000000E+00   0.00000000000000E+00  -2.61294933758996E-03  -1.89306457743957E-22  -2.61294933758996E-03
     -6.34779275029820E-16   8.03666666666667E-01   8.03666666666667E-01   0.00000000000000E+00   0.00000000000000E+00
      2.61294933759081E-03   1.49882655397388E-20   2.61294933759081E-03   2.88524303244591E-16   6.00000000000000E+00
      6.00000000000000E+00   0.00000000000000E+00   0.00000000000000E+00   0.00000000000000E+00   0.00000000000000E+00
      0.00000000000000E+00   6.13085091159101E-15
      2.92888888888889E-01
      0.00000000000000E+00   0.00000000000000E+00   0.00000000000000E+00   0.00000000000000E+00  -3.80538387803339E-17
     -8.73280768109004E-16  -9.11334606889338E-16  -5.82075592870760E-15   0.00000000000000E+00   0.00000000000000E+00
      0.00000000000000E+00   0.00000000000000E+00  -2.68189271713432E-03  -1.94333799453936E-22  -2.68189271713432E-03
     -6.36211882782088E-16   8.78666666666667E-01   8.78666666666667E-01   0.00000000000000E+00   0.00000000000000E+00
      2.68189271713523E-03   1.50426790815815E-20   2.68189271713523E-03   3.67227295231248E-16   6.00000000000000E+00
      6.00000000000000E+00   0.00000000000000E+00   0.00000000000000E+00   0.00000000000000E+00   0.00000000000000E+00
      0.00000000000000E+00   6.08974051625844E-15
      3.17888888888889E-01
      0.00000000000000E+00   0.00000000000000E+00   0.00000000000000E+00   0.00000000000000E+00  -1.01929186365882E-17
     -9.00266793068084E-16  -9.10459711704672E-16  -5.85579698022980E-15   0.00000000000000E+00   0.00000000000000E+00
      0.00000000000000E+00   0.00000000000000E+00  -2.74043236357863E-03  -1.98603657025229E-22  -2.74043236357863E-03
     -6.37650024398967E-16   9.53666666666667E-01   9.53666666666667E-01   0.00000000000000E+00   0.00000000000000E+00
      2.74043236357953E-03   1.50888480031676E-20   2.74043236357953E-03   4.44130182521261E-16   6.00000000000000E+00
      6.00000000000000E+00   0.00000000000000E+00   0.00000000000000E+00   0.00000000000000E+00   0.00000000000000E+00
      0.00000000000000E+00   6.04931682210751E-15
      3.42888888888889E-01
      0.00000000000000E+00   0.00000000000000E+00   0.00000000000000E+00   0.00000000000000E+00   2.71823972193586E-18
     -9.27279568857959E-16  -9.24561329136023E-16  -5.89028807980069E-15   0.00000000000000E+00   0.00000000000000E+00
      0.00000000000000E+00   0.00000000000000E+00  -2.79049091410513E-03  -2.02256486947641E-22  -2.79049091410513E-03
     -6.39082834996454E-16   1.02866666666667E+00   1.02866666666667E+00   0.00000000000000E+00   0.00000000000000E+00
      2.79049091410606E-03   1.51284456358079E-20   2.79049091410606E-03   5.19777178173238E-16   6.00000000000000E+00
      6.00000000000000E+00   0.00000000000000E+00   0.00000000000000E+00   0.00000000000000E+00   0.00000000000000E+00
      0.00000000000000E+00   6.00959373662390E-15
      3.67888888888889E-01
      0.00000000000000E+00   0.00000000000000E+00   0.00000000000000E+00   0.00000000000000E+00   4.48493868332659E-17
     -9.51424600447803E-16  -9.06575213614537E-16  -5.92479383490275E-15   0.00000000000000E+00   0.00000000000000E+00
      0.00000000000000E+00   0.00000000000000E+00  -2.83363951258229E-03  -2.05405901634674E-22  -2.83363951258229E-03
     -6.40503557073789E-16   1.10366666666667E+00   1.10366666666667E+00   0.00000000000000E+00   0.00000000000000E+00
      2.83363951258319E-03   1.51627376748218E-20   2.83363951258319E-03   5.94724137341278E-16   6.00000000000000E+00
      6.00000000000000E+00   0.00000000000000E+00   0.00000000000000E+00   0.00000000000000E+00   0.00000000000000E+00
      0.00000000000000E+00   5.97057325463526E-15
      3.92888888888889E-01
      0.00000000000000E+00   0.00000000000000E+00   0.00000000000000E+00   0.00000000000000E+00   4.43963641625665E-17
     -9.73037771783281E-16  -9.28641407620714E-16  -5.95965215756280E-15   0.00000000000000E+00   0.00000000000000E+00
      0.00000000000000E+00   0.00000000000000E+00  -2.87116816665997E-03  -2.08146264437262E-22  -2.87116816665997E-03
     -6.41910194265333E-16   1.17866666666667E+00   1.17866666666667E+00   0.00000000000000E+00   0.00000000000000E+00
      2.87116816666090E-03   1.51927199517905E-20   2.87116816666090E-03   6.69317039983600E-16   6.00000000000000E+00
      6.00000000000000E+00   0.00000000000000E+00   0.00000000000000E+00   0.00000000000000E+00   0.00000000000000E+00
      0.00000000000000E+00   5.93224531184453E-15
      4.17888888888889E-01
      0.00000000000000E+00   0.00000000000000E+00   0.00000000000000E+00   0.00000000000000E+00  -1.51761707883558E-17
     -9.94506123790881E-16  -1.00968229457924E-15  -5.99500782679927E-15   0.00000000000000E+00   0.00000000000000E+00
      0.00000000000000E+00   0.00000000000000E+00  -2.90413713263209E-03  -2.10553743150588E-22  -2.90413713263209E-03
     -6.43305187949022E-16   1.25366666666667E+00   1.25366666666667E+00   0.00000000000000E+00   0.00000000000000E+00
      2.90413713263310E-03   1.52191899739855E-20   2.90413713263310E-03   7.43723871889731E-16   6.00000000000000E+00
      6.00000000000000E+00   0.00000000000000E+00   0.00000000000000E+00   0.00000000000000E+00   0.00000000000000E+00
      0.00000000000000E+00   5.89458914285855E-15
      4.42888888888889E-01
      0.00000000000000E+00   0.00000000000000E+00   0.00000000000000E+00   0.00000000000000E+00   2.15186992146179E-17
     -1.01830365295150E-15  -9.96784953736881E-16  -6.03090003421417E-15   0.00000000000000E+00   0.00000000000000E+00
      0.00000000000000E+00   0.00000000000000E+00  -2.93341978683340E-03  -2.12694402633712E-22  -2.93341978683340E-03
     -6.44694385931202E-16   1.32866666666667E+00   1.32866666666667E+00   0.00000000000000E+00   0.00000000000000E+00
      2.93341978683440E-03   1.52427973453372E-20   2.93341978683440E-03   8.18022567367797E-16   6.00000000000000E+00
      6.00000000000000E+00   0.00000000000000E+00   0.00000000000000E+00   0.00000000000000E+00   0.00000000000000E+00
      0.00000000000000E+00   5.85757185277758E-15
      4.67888888888889E-01
      0.00000000000000E+00   0.00000000000000E+00   0.00000000000000E+00   0.00000000000000E+00  -3.62408154712957E-18
     -1.04504655833156E-15  -1.04867063987869E-15  -6.06732135206228E-15   0.00000000000000E+00   0.00000000000000E+00
      0.00000000000000E+00   0.00000000000000E+00  -2.95972615331402E-03  -2.14617196780060E-22  -2.95972615331402E-03
     -6.46085303221078E-16   1.40366666666667E+00   1.40366666666667E+00   0.00000000000000E+00   0.00000000000000E+00
      2.95972615331507E-03   1.52640767739090E-20   2.95972615331507E-03   8.92252030739521E-16   6.00000000000000E+00
      6.00000000000000E+00   0.00000000000000E+00   0.00000000000000E+00   0.00000000000000E+00   0.00000000000000E+00
      0.00000000000000E+00   5.82115462454384E-15
      4.92888888888889E-01
      0.00000000000000E+00   0.00000000000000E+00   0.00000000000000E+00   0.00000000000000E+00   3.62419499759400E-17
     -1.07343531031488E-15  -1.03719336033894E-15  -6.10425662504483E-15   0.00000000000000E+00   0.00000000000000E+00
      0.00000000000000E+00   0.00000000000000E+00  -2.98362201415760E-03  -2.16364983051665E-22  -2.98362201415760E-03
     -6.47485207110304E-16   1.47866666666667E+00   1.47866666666667E+00   0.00000000000000E+00   0.00000000000000E+00
      2.98362201415864E-03   1.52834646049430E-20   2.98362201415864E-03   9.66440792028932E-16   6.00000000000000E+00
      6.00000000000000E+00   0.00000000000000E+00   0.00000000000000E+00   0.00000000000000E+00   0.00000000000000E+00
      0.00000000000000E+00   5.78530104012620E-15
      5.17888888888889E-01
      0.00000000000000E+00   0.00000000000000E+00   0.00000000000000E+00   0.00000000000000E+00   8.15451913378868E-18
     -1.10393358394112E-15  -1.09577906480733E-15  -6.14166719031395E-15   0.00000000000000E+00   0.00000000000000E+00
      0.00000000000000E+00   0.00000000000000E+00  -3.00556373911535E-03  -2.17970457228985E-22  -3.00556373911535E-03
     -6.48899888863692E-16   1.55366666666667E+00   1.55366666666667E+00   0.00000000000000E+00   0.00000000000000E+00
      3.00556373911644E-03   1.53013250478685E-20   3.00556373911644E-03   1.04060034630870E-15   6.00000000000000E+00
      6.00000000000000E+00   0.00000000000000E+00   0.00000000000000E+00   0.00000000000000E+00   0.00000000000000E+00
      0.00000000000000E+00   5.74996673286892E-15
      5.42888888888889E-01
      0.00000000000000E+00   0.00000000000000E+00   0.00000000000000E+00   0.00000000000000E+00  -1.17784962410324E-17
     -1.14321435298659E-15  -1.15499284922762E-15  -6.17952831893152E-15   0.00000000000000E+00   0.00000000000000E+00
      0.00000000000000E+00   0.00000000000000E+00  -3.02590207402674E-03  -2.19459779925561E-22  -3.02590207402674E-03
     -6.50332343165193E-16   1.62866666666667E+00   1.62866666666667E+00   0.00000000000000E+00   0.00000000000000E+00
      3.02590207402789E-03   1.53179415091068E-20   3.02590207402789E-03   1.11474522414833E-15   6.00000000000000E+00
      6.00000000000000E+00   0.00000000000000E+00   0.00000000000000E+00   0.00000000000000E+00   0.00000000000000E+00
      0.00000000000000E+00   5.71511543794838E-15
      5.67888888888889E-01
      0.00000000000000E+00   0.00000000000000E+00   0.00000000000000E+00   0.00000000000000E+00   1.15521927357349E-17
     -1.20616762977523E-15  -1.19461543703950E-15  -6.21782277933543E-15   0.00000000000000E+00   0.00000000000000E+00
      0.00000000000000E+00   0.00000000000000E+00  -3.04490618523208E-03  -2.20851608181043E-22  -3.04490618523208E-03
     -6.51782980146028E-16   1.70366666666667E+00   1.70366666666667E+00   0.00000000000000E+00   0.00000000000000E+00
      3.04490618523327E-03   1.53335326499162E-20   3.04490618523327E-03   1.18888903594658E-15   6.00000000000000E+00
      6.00000000000000E+00   0.00000000000000E+00   0.00000000000000E+00   0.00000000000000E+00   0.00000000000000E+00
      0.00000000000000E+00   5.68071672353489E-15
      5.92888888888889E-01
      0.00000000000000E+00   0.00000000000000E+00   0.00000000000000E+00   0.00000000000000E+00  -7.02175340301939E-18
     -1.30452882571382E-15  -1.31155057911684E-15  -6.25653501179490E-15   0.00000000000000E+00   0.00000000000000E+00
      0.00000000000000E+00   0.00000000000000E+00  -3.06278356987835E-03  -2.22161818992186E-22  -3.06278356987835E-03
     -6.53250587409342E-16   1.77866666666667E+00   1.77866666666667E+00   0.00000000000000E+00   0.00000000000000E+00
      3.06278356987966E-03   1.53482658267566E-20   3.06278356987966E-03   1.26304113503396E-15   6.00000000000000E+00
      6.00000000000000E+00   0.00000000000000E+00   0.00000000000000E+00   0.00000000000000E+00   0.00000000000000E+00
      0.00000000000000E+00   5.64674446417028E-15
      6.17888888888889E-01
      0.00000000000000E+00   0.00000000000000E+00   0.00000000000000E+00   0.00000000000000E+00   3.42033473229299E-17
     -1.41841269091578E-15  -1.38420934359285E-15  -6.29564383316908E-15   0.00000000000000E+00   0.00000000000000E+00
      0.00000000000000E+00   0.00000000000000E+00  -3.07969727718273E-03  -2.23401972205339E-22  -3.07969727718273E-03
     -6.54733484894416E-16   1.85366666666667E+00   1.85366666666667E+00   0.00000000000000E+00   0.00000000000000E+00
      3.07969727718411E-03   1.53622708863521E-20   3.07969727718411E-03   1.33720305146610E-15   6.00000000000000E+00
      6.00000000000000E+00   0.00000000000000E+00   0.00000000000000E+00   0.00000000000000E+00   0.00000000000000E+00
      0.00000000000000E+00   5.61317426659740E-15
      6.42888888888889E-01
      0.00000000000000E+00   0.00000000000000E+00   0.00000000000000E+00   0.00000000000000E+00   2.94466051953962E-17
     -1.51001503745098E-15  -1.48056843225559E-15  -6.33511638738601E-15   0.00000000000000E+00   0.00000000000000E+00
      0.00000000000000E+00   0.00000000000000E+00  -3.09577937021896E-03  -2.24581698834614E-22  -3.09577937021896E-03
     -6.56230341890980E-16   1.92866666666667E+00   1.92866666666667E+00   0.00000000000000E+00   0.00000000000000E+00
      3.09577937022043E-03   1.53756515728341E-20   3.09577937022043E-03   1.41136625019871E-15   6.00000000000000E+00
      6.00000000000000E+00   0.00000000000000E+00   0.00000000000000E+00   0.00000000000000E+00   0.00000000000000E+00
      0.00000000000000E+00   5.57998047907828E-15
      6.67888888888889E-01
      0.00000000000000E+00   0.00000000000000E+00   0.00000000000000E+00   0.00000000000000E+00   3.70007508621355E-13
     -1.56959410027808E-15   3.68437914521077E-13  -6.37490594966945E-15   0.00000000000000E+00   0.00000000000000E+00
      0.00000000000000E+00   0.00000000000000E+00  -3.11114019903296E-03  -2.25715095185091E-22  -3.11114019903296E-03
     -6.57740629428363E-16   2.00366666666667E+00   2.00366666666667E+00   0.00000000000000E+00   0.00000000000000E+00
      3.11114019866452E-03   1.53880535506153E-20   3.11114019866452E-03   1.48551241155830E-15   6.00000000000000E+00
      6.00000000000000E+00   0.00000000000000E+00   0.00000000000000E+00   0.00000000000000E+00   0.00000000000000E+00
      0.00000000000000E+00   5.54713416753951E-15
      6.92888888888889E-01
      0.00000000000000E+00   0.00000000000000E+00   0.00000000000000E+00   0.00000000000000E+00   1.48872898434458E-13
     -1.60599004752634E-15   1.47266908386932E-13  -6.41495403932330E-15   0.00000000000000E+00   0.00000000000000E+00
      0.00000000000000E+00   0.00000000000000E+00  -3.12587397400448E-03  -2.26787474847914E-22  -3.12587397400448E-03
     -6.59264609376648E-16   2.07866666666667E+00   2.07866666666667E+00   0.00000000000000E+00   0.00000000000000E+00
      3.12587397385721E-03   1.54008537439400E-20   3.12587397385721E-03   1.55961591471500E-15   6.00000000000000E+00
      6.00000000000000E+00   0.00000000000000E+00   0.00000000000000E+00   0.00000000000000E+00   0.00000000000000E+00
      0.00000000000000E+00   5.51460273398495E-15
      7.17888888888889E-01
      0.00000000000000E+00   0.00000000000000E+00   0.00000000000000E+00   0.00000000000000E+00   5.82784749936506E-14
     -1.62685890103030E-15   5.66516160926203E-14  -6.45519531780581E-15   0.00000000000000E+00   0.00000000000000E+00
      0.00000000000000E+00   0.00000000000000E+00  -3.14006165145432E-03  -2.27823021183264E-22  -3.14006165145432E-03
     -6.60803071585267E-16   2.15366666666667E+00   2.15366666666667E+00   0.00000000000000E+00   0.00000000000000E+00
      3.14006165139767E-03   1.54128342376037E-20   3.14006165139767E-03   1.63364729587888E-15   6.00000000000000E+00
      6.00000000000000E+00   0.00000000000000E+00   0.00000000000000E+00   0.00000000000000E+00   0.00000000000000E+00
      0.00000000000000E+00   5.48235109351220E-15
      7.42888888888889E-01
      0.00000000000000E+00   0.00000000000000E+00   0.00000000000000E+00   0.00000000000000E+00   2.12886873008407E-14
     -1.63893541112885E-15   1.96497518897118E-14  -6.49556330185435E-15   0.00000000000000E+00   0.00000000000000E+00
      0.00000000000000E+00   0.00000000000000E+00  -3.15377204012530E-03  -2.28829117147027E-22  -3.15377204012530E-03
     -6.62356967280423E-16   2.22866666666667E+00   2.22866666666667E+00   0.00000000000000E+00   0.00000000000000E+00
      3.15377204010565E-03   1.54244342557037E-20   3.15377204010565E-03   1.70757642768094E-15   6.00000000000000E+00
      6.00000000000000E+00   0.00000000000000E+00   0.00000000000000E+00   0.00000000000000E+00   0.00000000000000E+00
      0.00000000000000E+00   5.45034384145382E-15
      7.67888888888889E-01
      0.00000000000000E+00   0.00000000000000E+00   0.00000000000000E+00   0.00000000000000E+00   6.28728095371732E-15
     -1.64798968255770E-15   4.63929127115962E-15  -6.53599539482874E-15   0.00000000000000E+00   0.00000000000000E+00
      0.00000000000000E+00   0.00000000000000E+00  -3.16706192686464E-03  -2.29809394329833E-22  -3.16706192686464E-03
     -6.63926968870916E-16   2.30366666666667E+00   2.30366666666667E+00   0.00000000000000E+00   0.00000000000000E+00
      3.16706192686000E-03   1.54353046920451E-20   3.16706192686000E-03   1.78137464654675E-15   6.00000000000000E+00
      6.00000000000000E+00   0.00000000000000E+00   0.00000000000000E+00   0.00000000000000E+00   0.00000000000000E+00
      0.00000000000000E+00   5.41854771715290E-15
      7.92888888888889E-01
      0.00000000000000E+00   0.00000000000000E+00   0.00000000000000E+00   0.00000000000000E+00   6.15205451976563E-16
     -1.65796527080239E-15  -1.04275981882582E-15  -6.57643633995777E-15   0.00000000000000E+00   0.00000000000000E+00
      0.00000000000000E+00   0.00000000000000E+00  -3.17997614618330E-03  -2.30764820699950E-22  -3.17997614618330E-03
     -6.65513115576503E-16   2.37866666666667E+00   2.37866666666667E+00   0.00000000000000E+00   0.00000000000000E+00
      3.17997614618435E-03   1.54427287883427E-20   3.17997614618435E-03   1.85501576416145E-15   6.00000000000000E+00
      6.00000000000000E+00   0.00000000000000E+00   0.00000000000000E+00   0.00000000000000E+00   0.00000000000000E+00
      0.00000000000000E+00   5.38693369137281E-15
      8.17888888888889E-01
      0.00000000000000E+00   0.00000000000000E+00   0.00000000000000E+00   0.00000000000000E+00  -1.61661276276571E-15
     -1.67083469002515E-15  -3.28744745279086E-15  -6.61683976213526E-15   0.00000000000000E+00   0.00000000000000E+00
      0.00000000000000E+00   0.00000000000000E+00  -3.19254842370898E-03  -2.31694390405975E-22  -3.19254842370898E-03
     -6.67114685378985E-16   2.45366666666667E+00   2.45366666666667E+00   0.00000000000000E+00   0.00000000000000E+00
      3.19254842371226E-03   1.54333106485986E-20   3.19254842371226E-03   1.92847634705584E-15   6.00000000000000E+00
      6.00000000000000E+00   0.00000000000000E+00   0.00000000000000E+00   0.00000000000000E+00   0.00000000000000E+00
      0.00000000000000E+00   5.35547810045841E-15
      8.42888888888889E-01
      0.00000000000000E+00   0.00000000000000E+00   0.00000000000000E+00   0.00000000000000E+00  -3.01781315610996E-15
     -1.68687602410654E-15  -4.70468918021650E-15  -6.65716773782209E-15   0.00000000000000E+00   0.00000000000000E+00
      0.00000000000000E+00   0.00000000000000E+00  -3.20480330542563E-03  -2.32599344862528E-22  -3.20480330542563E-03
     -6.68730338779730E-16   2.52866666666667E+00   2.52866666666667E+00   0.00000000000000E+00   0.00000000000000E+00
      3.20480330543033E-03   1.54580286188341E-20   3.20480330543033E-03   2.00173548519168E-15   6.00000000000000E+00
      6.00000000000000E+00   0.00000000000000E+00   0.00000000000000E+00   0.00000000000000E+00   0.00000000000000E+00
      0.00000000000000E+00   5.32416259141013E-15
      8.67888888888889E-01
      0.00000000000000E+00   0.00000000000000E+00   0.00000000000000E+00   0.00000000000000E+00  -1.07613367016839E-14