DF-ISE text

Info {
  version   = 1.0
  type      = xyplot
  datasets  = [
    "time"
    "substrate OuterVoltage" "substrate InnerVoltage" "substrate QuasiFermiPotential" "substrate DisplacementCurrent" "substrate eCurrent"
    "substrate hCurrent" "substrate TotalCurrent" "substrate Charge" "source OuterVoltage" "source InnerVoltage"
    "source QuasiFermiPotential" "source DisplacementCurrent" "source eCurrent" "source hCurrent" "source TotalCurrent"
    "source Charge" "drain OuterVoltage" "drain InnerVoltage" "drain QuasiFermiPotential" "drain DisplacementCurrent"
    "drain eCurrent" "drain hCurrent" "drain TotalCurrent" "drain Charge" "gate OuterVoltage"
    "gate InnerVoltage" "gate QuasiFermiPotential" "gate DisplacementCurrent" "gate eCurrent" "gate hCurrent"
    "gate TotalCurrent" "gate Charge" ]
  functions = [
    Time
    OuterVoltage InnerVoltage QuasiFermiPotential DisplacementCurrent eCurrent
    hCurrent TotalCurrent Charge OuterVoltage InnerVoltage
    QuasiFermiPotential DisplacementCurrent eCurrent hCurrent TotalCurrent
    Charge OuterVoltage InnerVoltage QuasiFermiPotential DisplacementCurrent
    eCurrent hCurrent TotalCurrent Charge OuterVoltage
    InnerVoltage QuasiFermiPotential DisplacementCurrent eCurrent hCurrent
    TotalCurrent Charge ]
}

Data {
      0.00000000000000E+00
      0.00000000000000E+00   0.00000000000000E+00   0.00000000000000E+00   0.00000000000000E+00   6.72504622581315E-26
      1.00352383442617E-27   6.82539860925576E-26  -9.65168304692880E-15   0.00000000000000E+00   0.00000000000000E+00
      0.00000000000000E+00   0.00000000000000E+00  -1.18887070356577E-26  -2.71365293784893E-28  -1.21600723294426E-26
      4.11515476857509E-15   0.00000000000000E+00   0.00000000000000E+00   0.00000000000000E+00   0.00000000000000E+00
     -5.53615096188317E-26  -7.32404144283210E-28  -5.60939137631149E-26   4.11515476857509E-15   1.00000000000000E+00
      1.00000000000000E+00   0.00000000000000E+00   0.00000000000000E+00   0.00000000000000E+00   0.00000000000000E+00
      0.00000000000000E+00   1.42137350977862E-15
      1.00000000000000E-02
      0.00000000000000E+00   0.00000000000000E+00   0.00000000000000E+00   0.00000000000000E+00  -3.08650150975314E-20
     -1.73369207906262E-16  -1.73400072921360E-16  -9.77470213210998E-15   0.00000000000000E+00   0.00000000000000E+00
      0.00000000000000E+00   0.00000000000000E+00  -2.25340788594830E-20  -4.51577462302489E-28  -2.25340793110604E-20
      4.11515476857476E-15   3.00000000000000E-02   3.00000000000000E-02   0.00000000000000E+00   0.00000000000000E+00
      1.73398456807866E-16   2.41501928053489E-20   1.73422607000671E-16   4.23933614277955E-15   1.00000000000000E+00
      1.00000000000000E+00   0.00000000000000E+00   0.00000000000000E+00   0.00000000000000E+00   0.00000000000000E+00
      0.00000000000000E+00   1.42021122075566E-15
      2.33333333333333E-02
      0.00000000000000E+00   0.00000000000000E+00   0.00000000000000E+00   0.00000000000000E+00  -7.14224532093044E-20
     -4.21769307006199E-16  -4.21840729459408E-16  -9.93845939105349E-15   0.00000000000000E+00   0.00000000000000E+00
      0.00000000000000E+00   0.00000000000000E+00  -3.01423441263174E-20   3.43366514248300E-28  -3.01423437829509E-20
      4.11515476857379E-15   7.00000000000000E-02   7.00000000000000E-02   0.00000000000000E+00   0.00000000000000E+00
      4.21838672625739E-16   3.21991774520416E-20   4.21870871803191E-16   4.40464354365584E-15   1.00000000000000E+00
      1.00000000000000E+00   0.00000000000000E+00   0.00000000000000E+00   0.00000000000000E+00   0.00000000000000E+00
      0.00000000000000E+00   1.41866107882384E-15
      4.28888888888889E-02
      0.00000000000000E+00   0.00000000000000E+00   0.00000000000000E+00   0.00000000000000E+00  -5.10810516335041E-19
     -8.74507249563263E-16  -8.75018060079598E-16  -1.01780542651739E-14   0.00000000000000E+00   0.00000000000000E+00
      0.00000000000000E+00   0.00000000000000E+00  -3.12847760341119E-20  -2.74457378162976E-28  -3.12847763085693E-20
      4.11515476829523E-15   1.28666666666667E-01   1.28666666666667E-01   0.00000000000000E+00   0.00000000000000E+00
      8.75027983581507E-16   2.13612743992967E-20   8.75049344855907E-16   4.64651285189007E-15   1.00000000000000E+00
      1.00000000000000E+00   0.00000000000000E+00   0.00000000000000E+00   0.00000000000000E+00   0.00000000000000E+00
      0.00000000000000E+00   1.41638664498856E-15
      6.78888888888889E-02
      0.00000000000000E+00   0.00000000000000E+00   0.00000000000000E+00   0.00000000000000E+00  -4.29124599401774E-20
     -1.54505250030543E-15  -1.54509541276537E-15  -1.04831611329886E-14   0.00000000000000E+00   0.00000000000000E+00
      0.00000000000000E+00   0.00000000000000E+00  -3.10002155841687E-20   2.14570186937443E-28  -3.10002153695985E-20
      4.11515476857262E-15   2.03666666666667E-01   2.03666666666667E-01   0.00000000000000E+00   0.00000000000000E+00
      1.54503291627481E-15   9.34967059350054E-20   1.54512641298074E-15   4.95452898743511E-15   1.00000000000000E+00
      1.00000000000000E+00   0.00000000000000E+00   0.00000000000000E+00   0.00000000000000E+00   0.00000000000000E+00
      0.00000000000000E+00   1.41347737698084E-15
      9.28888888888889E-02
      0.00000000000000E+00   0.00000000000000E+00   0.00000000000000E+00   0.00000000000000E+00  -4.31016273420918E-20
     -2.22053003788389E-15  -2.22057313951123E-15  -1.07864496313995E-14   0.00000000000000E+00   0.00000000000000E+00
      0.00000000000000E+00   0.00000000000000E+00  -3.09954514461477E-20   1.30586502096342E-28  -3.09954513155612E-20
      4.11515476856530E-15   2.78666666666667E-01   2.78666666666667E-01   0.00000000000000E+00   0.00000000000000E+00
      2.22036165906986E-15   2.42475892684408E-19   2.22060413496255E-15   5.26072869422970E-15   1.00000000000000E+00
      1.00000000000000E+00   0.00000000000000E+00   0.00000000000000E+00   0.00000000000000E+00   0.00000000000000E+00
      0.00000000000000E+00   1.41056616860453E-15
      1.17888888888889E-01
      0.00000000000000E+00   0.00000000000000E+00   0.00000000000000E+00   0.00000000000000E+00  -4.27810347912401E-20
     -2.64872557718437E-15  -2.64876835821916E-15  -1.10873846720124E-14   0.00000000000000E+00   0.00000000000000E+00
      0.00000000000000E+00   0.00000000000000E+00  -3.10365457600349E-20   4.45237027243442E-28  -3.10365453147979E-20
      4.11515476857003E-15   3.53666666666667E-01   3.53666666666667E-01   0.00000000000000E+00   0.00000000000000E+00
      2.64876454191094E-15   3.48528535360402E-20   2.64879939476447E-15   5.56457707095751E-15   1.00000000000000E+00
      1.00000000000000E+00   0.00000000000000E+00   0.00000000000000E+00   0.00000000000000E+00   0.00000000000000E+00
      0.00000000000000E+00   1.40765283248483E-15
      1.42888888888889E-01
      0.00000000000000E+00   0.00000000000000E+00   0.00000000000000E+00   0.00000000000000E+00  -4.28386191956394E-20
     -2.80794161667074E-15  -2.80798445528993E-15  -1.13862354262501E-14   0.00000000000000E+00   0.00000000000000E+00
      0.00000000000000E+00   0.00000000000000E+00  -3.10760806963870E-20  -1.18313528199801E-27  -3.10760818795223E-20
      4.11515476856984E-15   4.28666666666667E-01   4.28666666666667E-01   0.00000000000000E+00   0.00000000000000E+00
      2.80798080483981E-15   3.47265320034994E-20   2.80801553137181E-15   5.86634350224588E-15   1.00000000000000E+00
      1.00000000000000E+00   0.00000000000000E+00   0.00000000000000E+00   0.00000000000000E+00   0.00000000000000E+00
      0.00000000000000E+00   1.40473715543436E-15
      1.67888888888889E-01
      0.00000000000000E+00   0.00000000000000E+00   0.00000000000000E+00   0.00000000000000E+00  -4.28903897062871E-20
     -2.85389277860587E-15  -2.85393566899558E-15  -1.16839234596753E-14   0.00000000000000E+00   0.00000000000000E+00
      0.00000000000000E+00   0.00000000000000E+00  -3.11143394781539E-20   3.35724645814589E-28  -3.11143391424292E-20
      4.11515476856975E-15   5.03666666666667E-01   5.03666666666667E-01   0.00000000000000E+00   0.00000000000000E+00
      2.85393200406416E-15   3.47792705559706E-20   2.85396678333472E-15   6.16694974986131E-15   1.00000000000000E+00
      1.00000000000000E+00   0.00000000000000E+00   0.00000000000000E+00   0.00000000000000E+00   0.00000000000000E+00
      0.00000000000000E+00   1.40181894124428E-15
      1.92888888888889E-01
      0.00000000000000E+00   0.00000000000000E+00   0.00000000000000E+00   0.00000000000000E+00  -4.29387950631025E-20
     -2.86762279426089E-15  -2.86766573305595E-15  -1.19809869456318E-14   0.00000000000000E+00   0.00000000000000E+00
      0.00000000000000E+00   0.00000000000000E+00  -3.11517458631859E-20  -1.06151196227380E-27  -3.11517469246978E-20
      4.11515476856972E-15   5.78666666666667E-01   5.78666666666667E-01   0.00000000000000E+00   0.00000000000000E+00
      2.86766205930318E-15   3.48254996940812E-20   2.86769688480287E-15   6.46693409887547E-15   1.00000000000000E+00
      1.00000000000000E+00   0.00000000000000E+00   0.00000000000000E+00   0.00000000000000E+00   0.00000000000000E+00
      0.00000000000000E+00   1.39889807818662E-15
      2.17888888888889E-01
      0.00000000000000E+00   0.00000000000000E+00   0.00000000000000E+00   0.00000000000000E+00  -4.29112749815112E-20
     -2.87585092268462E-15  -2.87589383395961E-15  -1.22775526923148E-14   0.00000000000000E+00   0.00000000000000E+00
      0.00000000000000E+00   0.00000000000000E+00  -3.11877135762087E-20   6.84347538028580E-28  -3.11877128918611E-20
      4.11515476856975E-15   6.53666666666667E-01   6.53666666666667E-01   0.00000000000000E+00   0.00000000000000E+00
      2.87589015489036E-15   3.48667821312091E-20   2.87592502167250E-15   6.76642328442423E-15   1.00000000000000E+00
      1.00000000000000E+00   0.00000000000000E+00   0.00000000000000E+00   0.00000000000000E+00   0.00000000000000E+00
      0.00000000000000E+00   1.39597463932085E-15
      2.42888888888889E-01
      0.00000000000000E+00   0.00000000000000E+00   0.00000000000000E+00   0.00000000000000E+00  -4.30267899544359E-20
     -2.89146368951077E-15  -2.89150671630073E-15  -1.25735939238921E-14   0.00000000000000E+00   0.00000000000000E+00
      0.00000000000000E+00   0.00000000000000E+00  -3.12219776194946E-20   8.82386914117521E-29  -3.12219775312559E-20
      4.11515476856968E-15   7.28666666666667E-01   7.28666666666666E-01   0.00000000000000E+00   0.00000000000000E+00
      2.89150303380020E-15   3.49044780594934E-20   2.89153793827826E-15   7.06539012375852E-15   1.00000000000000E+00
      1.00000000000000E+00   0.00000000000000E+00   0.00000000000000E+00   0.00000000000000E+00   0.00000000000000E+00
      0.00000000000000E+00   1.39304903156393E-15
      2.67888888888889E-01
      0.00000000000000E+00   0.00000000000000E+00   0.00000000000000E+00   0.00000000000000E+00  -4.30672014553251E-20
     -2.93327861204898E-15  -2.93332167925044E-15  -1.28690296359237E-14   0.00000000000000E+00   0.00000000000000E+00
      0.00000000000000E+00   0.00000000000000E+00  -3.12548305033708E-20   5.59855626628988E-28  -3.12548299435152E-20
      4.11515476856960E-15   8.03666666666667E-01   8.03666666666667E-01   0.00000000000000E+00   0.00000000000000E+00
      2.93331799478821E-15   3.49392921695382E-20   2.93335293408038E-15   7.36375264416050E-15   1.00000000000000E+00
      1.00000000000000E+00   0.00000000000000E+00   0.00000000000000E+00   0.00000000000000E+00   0.00000000000000E+00
      0.00000000000000E+00   1.39012222319368E-15
      2.92888888888889E-01
      0.00000000000000E+00   0.00000000000000E+00   0.00000000000000E+00   0.00000000000000E+00  -4.31059062431566E-20
     -3.03594596073247E-15  -3.03598906663871E-15  -1.31637519111381E-14   0.00000000000000E+00   0.00000000000000E+00
      0.00000000000000E+00   0.00000000000000E+00  -3.12865342169963E-20   1.11106506709385E-28  -3.12865341058898E-20
      4.11515476856940E-15   8.78666666666667E-01   8.78666666666667E-01   0.00000000000000E+00   0.00000000000000E+00
      3.03598538125488E-15   3.49719179405622E-20   3.03602035317282E-15   7.66140104886843E-15   1.00000000000000E+00
      1.00000000000000E+00   0.00000000000000E+00   0.00000000000000E+00   0.00000000000000E+00   0.00000000000000E+00
      0.00000000000000E+00   1.38719609370026E-15
      3.17888888888889E-01
      0.00000000000000E+00   0.00000000000000E+00   0.00000000000000E+00   0.00000000000000E+00  -4.31431949817856E-20
     -3.22357778591311E-15  -3.22362092910809E-15  -1.34576432680851E-14   0.00000000000000E+00   0.00000000000000E+00
      0.00000000000000E+00   0.00000000000000E+00  -3.13170253196989E-20   7.36055060157786E-29  -3.13170252460934E-20
      4.11515476856905E-15   9.53666666666667E-01   9.53666666666667E-01   0.00000000000000E+00   0.00000000000000E+00
      3.22361724329239E-15   3.50028409440346E-20   3.22365224613333E-15   7.95821454737892E-15   1.00000000000000E+00
      1.00000000000000E+00   0.00000000000000E+00   0.00000000000000E+00   0.00000000000000E+00   0.00000000000000E+00
      0.00000000000000E+00   1.38427395213717E-15
      3.42888888888889E-01
      0.00000000000000E+00   0.00000000000000E+00   0.00000000000000E+00   0.00000000000000E+00  -4.31783900237281E-20
     -3.46401428089747E-15  -3.46405745928749E-15  -1.37505947092139E-14   0.00000000000000E+00   0.00000000000000E+00
      0.00000000000000E+00   0.00000000000000E+00  -3.13453827190499E-20   3.42030541302067E-28  -3.13453823770193E-20
      4.11515476856859E-15   1.02866666666667E+00   1.02866666666667E+00   0.00000000000000E+00   0.00000000000000E+00
      3.46405377222393E-15   3.50324459302812E-20   3.46408880466986E-15   8.25407861162147E-15   1.00000000000000E+00
      1.00000000000000E+00   0.00000000000000E+00   0.00000000000000E+00   0.00000000000000E+00   0.00000000000000E+00
      0.00000000000000E+00   1.38136132902390E-15
      3.67888888888889E-01
      0.00000000000000E+00   0.00000000000000E+00   0.00000000000000E+00   0.00000000000000E+00  -4.32103331028674E-20
     -3.66705810712597E-15  -3.66710131745907E-15  -1.40424972843079E-14   0.00000000000000E+00   0.00000000000000E+00
      0.00000000000000E+00   0.00000000000000E+00  -3.13707261541270E-20   7.16325490632779E-28  -3.13707254378015E-20
      4.11515476856821E-15   1.10366666666667E+00   1.10366666666667E+00   0.00000000000000E+00   0.00000000000000E+00
      3.66709762714084E-15   3.50610436652427E-20   3.66713268818451E-15   8.54887495469098E-15   1.00000000000000E+00
      1.00000000000000E+00   0.00000000000000E+00   0.00000000000000E+00   0.00000000000000E+00   0.00000000000000E+00
      0.00000000000000E+00   1.37846756104877E-15
      3.92888888888889E-01
      0.00000000000000E+00   0.00000000000000E+00   0.00000000000000E+00   0.00000000000000E+00  -4.32401040300713E-20
     -3.75831410152458E-15  -3.75835734162861E-15  -1.43331813180763E-14   0.00000000000000E+00   0.00000000000000E+00
      0.00000000000000E+00   0.00000000000000E+00  -3.13939582138888E-20   1.51993505379266E-28  -3.13939580618953E-20
      4.11515476856803E-15   1.17866666666667E+00   1.17866666666667E+00   0.00000000000000E+00   0.00000000000000E+00
      3.75835364669943E-15   3.50888872456456E-20   3.75838873558667E-15   8.84241692000146E-15   1.00000000000000E+00
      1.00000000000000E+00   0.00000000000000E+00   0.00000000000000E+00   0.00000000000000E+00   0.00000000000000E+00
      0.00000000000000E+00   1.37560962950685E-15
      4.17888888888889E-01
      0.00000000000000E+00   0.00000000000000E+00   0.00000000000000E+00   0.00000000000000E+00  -4.32690995271469E-20
     -3.78444336269317E-15  -3.78448663179270E-15  -1.46223262622342E-14   0.00000000000000E+00   0.00000000000000E+00
      0.00000000000000E+00   0.00000000000000E+00  -3.14161946472773E-20  -5.97191921501272E-28  -3.14161952444693E-20
      4.11515476856798E-15   1.25366666666667E+00   1.25366666666667E+00   0.00000000000000E+00   0.00000000000000E+00
      3.78448293180178E-15   3.51161861687945E-20   3.78451804798795E-15   9.13435163498163E-15   1.00000000000000E+00
      1.00000000000000E+00   0.00000000000000E+00   0.00000000000000E+00   0.00000000000000E+00   0.00000000000000E+00
      0.00000000000000E+00   1.37281985868463E-15
      4.42888888888889E-01
      0.00000000000000E+00   0.00000000000000E+00   0.00000000000000E+00   0.00000000000000E+00  -4.32971078010538E-20
     -3.79105215240516E-15  -3.79109544951296E-15  -1.49094767883724E-14   0.00000000000000E+00   0.00000000000000E+00
      0.00000000000000E+00   0.00000000000000E+00  -3.14377876093704E-20  -9.12316021963947E-29  -3.14377877006020E-20
      4.11515476856797E-15   1.32866666666667E+00   1.32866666666667E+00   0.00000000000000E+00   0.00000000000000E+00
      3.79109174416727E-15   3.51431333997474E-20   3.79112688730067E-15   9.42417451750658E-15   1.00000000000000E+00
      1.00000000000000E+00   0.00000000000000E+00   0.00000000000000E+00   0.00000000000000E+00   0.00000000000000E+00
      0.00000000000000E+00   1.37014750229783E-15
      4.67888888888889E-01
      0.00000000000000E+00   0.00000000000000E+00   0.00000000000000E+00   0.00000000000000E+00  -4.33251834705091E-20
     -3.79408188237306E-15  -3.79412520755653E-15  -1.51946322958057E-14   0.00000000000000E+00   0.00000000000000E+00
      0.00000000000000E+00   0.00000000000000E+00  -3.14586434253953E-20  -2.13790531609680E-28  -3.14586436391858E-20
      4.11515476856796E-15   1.40366666666667E+00   1.40366666666667E+00   0.00000000000000E+00   0.00000000000000E+00
      3.79412149638018E-15   3.51698199903827E-20   3.79415666620017E-15   9.71187118848092E-15   1.00000000000000E+00
      1.00000000000000E+00   0.00000000000000E+00   0.00000000000000E+00   0.00000000000000E+00   0.00000000000000E+00
      0.00000000000000E+00   1.36760633875678E-15
      4.92888888888889E-01
      0.00000000000000E+00   0.00000000000000E+00   0.00000000000000E+00   0.00000000000000E+00  -4.33527409765958E-20
     -3.80197986504024E-15  -3.80202321778122E-15  -1.54786332540200E-14   0.00000000000000E+00   0.00000000000000E+00
      0.00000000000000E+00   0.00000000000000E+00  -3.14792342729213E-20  -3.79551372959654E-28  -3.14792346524727E-20
      4.11515476856795E-15   1.47866666666667E+00   1.47866666666667E+00   0.00000000000000E+00   0.00000000000000E+00
      3.80201950058623E-15   3.51964296547726E-20   3.80205469701588E-15   9.99834683447729E-15   1.00000000000000E+00
      1.00000000000000E+00   0.00000000000000E+00   0.00000000000000E+00   0.00000000000000E+00   0.00000000000000E+00
      0.00000000000000E+00   1.36513165097480E-15
      5.17888888888889E-01
      0.00000000000000E+00   0.00000000000000E+00   0.00000000000000E+00   0.00000000000000E+00  -4.33803400418905E-20
     -3.83108089753728E-15  -3.83112427787732E-15  -1.57621223441622E-14   0.00000000000000E+00   0.00000000000000E+00
      0.00000000000000E+00   0.00000000000000E+00  -3.14999092876089E-20   3.23869689197456E-28  -3.14999089637392E-20
      4.11515476856789E-15   1.55366666666667E+00   1.55366666666667E+00   0.00000000000000E+00   0.00000000000000E+00
      3.83112055474474E-15   3.52230415511163E-20   3.83115577778629E-15   1.02842976778576E-14   1.00000000000000E+00
      1.00000000000000E+00   0.00000000000000E+00   0.00000000000000E+00   0.00000000000000E+00   0.00000000000000E+00
      0.00000000000000E+00   1.36266989773667E-15
      5.42888888888889E-01
      0.00000000000000E+00   0.00000000000000E+00   0.00000000000000E+00   0.00000000000000E+00  -4.23726404832233E-20
     -3.91841539415657E-15  -3.91845776679706E-15  -1.60452920087243E-14   0.00000000000000E+00   0.00000000000000E+00
      0.00000000000000E+00   0.00000000000000E+00  -3.15206577977635E-20   2.43290016304548E-28  -3.15206575544735E-20
      4.11515476856771E-15   1.62866666666667E+00   1.62866666666667E+00   0.00000000000000E+00   0.00000000000000E+00
      3.91845403871288E-15   3.52487417365297E-20   3.91848928745461E-15   1.05699321248900E-14   1.00000000000000E+00
      1.00000000000000E+00   0.00000000000000E+00   0.00000000000000E+00   0.00000000000000E+00   0.00000000000000E+00
      0.00000000000000E+00   1.36020511526651E-15
      5.67888888888889E-01
      0.00000000000000E+00   0.00000000000000E+00   0.00000000000000E+00   0.00000000000000E+00  -4.33867195139819E-20
     -4.12680021821545E-15  -4.12684360493496E-15  -1.63281778758021E-14   0.00000000000000E+00   0.00000000000000E+00
      0.00000000000000E+00   0.00000000000000E+00  -3.15414771496259E-20   4.61895495516515E-28  -3.15414766877304E-20
      4.11515476856728E-15   1.70366666666667E+00   1.70366666666667E+00   0.00000000000000E+00   0.00000000000000E+00
      4.12683986648807E-15   3.52799235799560E-20   4.12687514641165E-15   1.08552888269508E-14   1.00000000000000E+00
      1.00000000000000E+00   0.00000000000000E+00   0.00000000000000E+00   0.00000000000000E+00   0.00000000000000E+00
      0.00000000000000E+00   1.35773428028409E-15
      5.92888888888889E-01
      0.00000000000000E+00   0.00000000000000E+00   0.00000000000000E+00   0.00000000000000E+00  -4.34640102073738E-20
     -4.37225240156309E-15  -4.37229586557330E-15  -1.66107769335208E-14   0.00000000000000E+00   0.00000000000000E+00
      0.00000000000000E+00   0.00000000000000E+00  -3.15625025416992E-20   1.10451807696125E-28  -3.15625024312474E-20
      4.11515476856685E-15   1.77866666666667E+00   1.77866666666667E+00   0.00000000000000E+00   0.00000000000000E+00
      4.37229208582314E-15   3.53422525880082E-20   4.37232742807573E-15   1.11403650518105E-14   1.00000000000000E+00
      1.00000000000000E+00   0.00000000000000E+00   0.00000000000000E+00   0.00000000000000E+00   0.00000000000000E+00
      0.00000000000000E+00   1.35525711314349E-15
      6.17888888888889E-01
      0.00000000000000E+00   0.00000000000000E+00   0.00000000000000E+00   0.00000000000000E+00  -4.34923357751614E-20
     -4.56458959186467E-15  -4.56463308420045E-15  -1.68930745272785E-14   0.00000000000000E+00   0.00000000000000E+00
      0.00000000000000E+00   0.00000000000000E+00  -3.15834778096893E-20   5.88128219021348E-29  -3.15834777508764E-20
      4.11515476856649E-15   1.85366666666667E+00   1.85366666666667E+00   0.00000000000000E+00   0.00000000000000E+00
      4.56462934567905E-15   3.53219991591830E-20   4.56466466767821E-15   1.14251459128481E-14   1.00000000000000E+00
      1.00000000000000E+00   0.00000000000000E+00   0.00000000000000E+00   0.00000000000000E+00   0.00000000000000E+00
      0.00000000000000E+00   1.35277384586394E-15
      6.42888888888889E-01
      0.00000000000000E+00   0.00000000000000E+00   0.00000000000000E+00   0.00000000000000E+00  -4.35206058740956E-20
     -4.77588927314034E-15  -4.77593279374622E-15  -1.71750501871225E-14   0.00000000000000E+00   0.00000000000000E+00
      0.00000000000000E+00   0.00000000000000E+00  -3.16047095210785E-20  -1.33418641420188E-28  -3.16047096544972E-20
      4.11515476856608E-15   1.92866666666667E+00   1.92866666666667E+00   0.00000000000000E+00   0.00000000000000E+00
      4.77592904928067E-15   3.53491752017348E-20   4.77596439845587E-15   1.17096106359224E-14   1.00000000000000E+00
      1.00000000000000E+00   0.00000000000000E+00   0.00000000000000E+00   0.00000000000000E+00   0.00000000000000E+00
      0.00000000000000E+00   1.35028478263400E-15
      6.67888888888889E-01
      0.00000000000000E+00   0.00000000000000E+00   0.00000000000000E+00   0.00000000000000E+00  -4.35491768114159E-20
     -4.92850442811476E-15  -4.92854797729157E-15  -1.74566787823987E-14   0.00000000000000E+00   0.00000000000000E+00
      0.00000000000000E+00   0.00000000000000E+00  -3.16259286995582E-20   4.10161334623173E-28  -3.16259282893969E-20
      4.11515476856578E-15   2.00366666666667E+00   2.00366666666667E+00   0.00000000000000E+00   0.00000000000000E+00
      4.92854425110112E-15   3.53521187352672E-20   4.92857960321985E-15   1.19937338142163E-14   1.00000000000000E+00
      1.00000000000000E+00   0.00000000000000E+00   0.00000000000000E+00   0.00000000000000E+00   0.00000000000000E+00
      0.00000000000000E+00   1.34779019961663E-15
      6.92888888888889E-01
      0.00000000000000E+00   0.00000000000000E+00   0.00000000000000E+00   0.00000000000000E+00  -4.35778975404449E-20
     -4.97952650660622E-15  -4.97957008450376E-15  -1.77379304007269E-14   0.00000000000000E+00   0.00000000000000E+00
      0.00000000000000E+00   0.00000000000000E+00  -3.16473380036826E-20  -1.74964487927010E-29  -3.16473380211791E-20
      4.11515476856569E-15   2.07866666666667E+00   2.07866666666667E+00   0.00000000000000E+00   0.00000000000000E+00
      4.97956631553509E-15   3.54163066863202E-20   4.97960173184177E-15   1.22774853223383E-14   1.00000000000000E+00
      1.00000000000000E+00   0.00000000000000E+00   0.00000000000000E+00   0.00000000000000E+00   0.00000000000000E+00
      0.00000000000000E+00   1.34529030982299E-15
      7.17888888888889E-01
      0.00000000000000E+00   0.00000000000000E+00   0.00000000000000E+00   0.00000000000000E+00  -4.36067406331527E-20
     -4.99249687731649E-15  -4.99254048405712E-15  -1.80187697005132E-14   0.00000000000000E+00   0.00000000000000E+00
      0.00000000000000E+00   0.00000000000000E+00  -3.16688308425432E-20  -5.54162759745048E-28  -3.16688313967060E-20
      4.11515476856566E-15   2.15366666666667E+00   2.15366666666667E+00   0.00000000000000E+00   0.00000000000000E+00
      4.99253670303601E-15   3.54498525081076E-20   4.99257215288852E-15   1.25608296856190E-14   1.00000000000000E+00
      1.00000000000000E+00   0.00000000000000E+00   0.00000000000000E+00   0.00000000000000E+00   0.00000000000000E+00
      0.00000000000000E+00   1.34278524632858E-15
      7.42888888888889E-01
      0.00000000000000E+00   0.00000000000000E+00   0.00000000000000E+00   0.00000000000000E+00  -4.35982601126365E-20
     -4.99756551127423E-15  -4.99760910953434E-15  -1.82991548991562E-14   0.00000000000000E+00   0.00000000000000E+00
      0.00000000000000E+00   0.00000000000000E+00  -3.16905146171780E-20   3.39138105594451E-28  -3.16905142780399E-20
      4.11515476856565E-15   2.22866666666667E+00   2.22866666666667E+00   0.00000000000000E+00   0.00000000000000E+00
      4.99760531836435E-15   3.54816842677363E-20   4.99764080004862E-15   1.28437250736607E-14   1.00000000000000E+00
      1.00000000000000E+00   0.00000000000000E+00   0.00000000000000E+00   0.00000000000000E+00   0.00000000000000E+00
      0.00000000000000E+00   1.34027505692985E-15
      7.67888888888889E-01
      0.00000000000000E+00   0.00000000000000E+00   0.00000000000000E+00   0.00000000000000E+00  -4.34274273784849E-20
     -5.00207289125583E-15  -5.00211631868321E-15  -1.85790363796063E-14   0.00000000000000E+00   0.00000000000000E+00
      0.00000000000000E+00   0.00000000000000E+00  -3.17123824621557E-20   1.01985778612726E-27  -3.17123814422979E-20
      4.11515476856564E-15   2.30366666666667E+00   2.30366666666667E+00   0.00000000000000E+00   0.00000000000000E+00
      5.00211251631049E-15   3.55147541577953E-20   5.00214803106465E-15   1.31261219019644E-14   1.00000000000000E+00
      1.00000000000000E+00   0.00000000000000E+00   0.00000000000000E+00   0.00000000000000E+00   0.00000000000000E+00
      0.00000000000000E+00   1.33775970907633E-15
      7.92888888888889E-01
      0.00000000000000E+00   0.00000000000000E+00   0.00000000000000E+00   0.00000000000000E+00  -4.36737031429669E-20
     -5.00818599957373E-15  -5.00822967327687E-15  -1.88583547995422E-14   0.00000000000000E+00   0.00000000000000E+00
      0.00000000000000E+00   0.00000000000000E+00  -3.17344511145498E-20   3.88820977952323E-28  -3.17344507257288E-20
      4.11515476856563E-15   2.37866666666667E+00   2.37866666666667E+00   0.00000000000000E+00   0.00000000000000E+00
      5.00822585846831E-15   3.55492592868729E-20   5.00826140772760E-15   1.34079609265837E-14   1.00000000000000E+00
      1.00000000000000E+00   0.00000000000000E+00   0.00000000000000E+00   0.00000000000000E+00   0.00000000000000E+00
      0.00000000000000E+00   1.33523910439283E-15
      8.17888888888889E-01
      0.00000000000000E+00   0.00000000000000E+00   0.00000000000000E+00   0.00000000000000E+00  -4.37169749779911E-20
     -5.01775328228705E-15  -5.01779699926203E-15  -1.91370384878148E-14   0.00000000000000E+00   0.00000000000000E+00
      0.00000000000000E+00   0.00000000000000E+00  -3.17566848045474E-20   1.73908897825777E-28  -3.17566846306385E-20
      4.11515476856561E-15   2.45366666666667E+00   2.45366666666667E+00   0.00000000000000E+00   0.00000000000000E+00
      5.01779317051993E-15   3.55854267297391E-20   5.01782875594666E-15   1.36891706171626E-14   1.00000000000000E+00
      1.00000000000000E+00   0.00000000000000E+00   0.00000000000000E+00   0.00000000000000E+00   0.00000000000000E+00
      0.00000000000000E+00   1.33271310208661E-15
      8.42888888888889E-01
      0.00000000000000E+00   0.00000000000000E+00   0.00000000000000E+00   0.00000000000000E+00  -4.37557705252117E-20
     -5.03365953285025E-15  -5.03370328862077E-15  -1.94149997691255E-14   0.00000000000000E+00   0.00000000000000E+00
      0.00000000000000E+00   0.00000000000000E+00  -3.17791597580056E-20  -6.90367428535054E-28  -3.17791604483730E-20
      4.11515476856558E-15   2.52866666666667E+00   2.52866666666667E+00   0.00000000000000E+00   0.00000000000000E+00
      5.03369944425153E-15   3.56235296826675E-20   5.03373506778121E-15   1.39696634503951E-14   1.00000000000000E+00
      1.00000000000000E+00   0.00000000000000E+00   0.00000000000000E+00   0.00000000000000E+00   0.00000000000000E+00
      0.00000000000000E+00   1.33018155016481E-15
      8.67888888888889E-01
      0.00000000000000E+00   0.00000000000000E+00   0.00000000000000E+00   0.00000000000000E+00  -4.37876448673480E-20