DF-ISE text

Info {
  version   = 1.0
  type      = xyplot
  datasets  = [
    "time"
    "substrate OuterVoltage" "substrate InnerVoltage" "substrate QuasiFermiPotential" "substrate DisplacementCurrent" "substrate eCurrent"
    "substrate hCurrent" "substrate TotalCurrent" "substrate Charge" "source OuterVoltage" "source InnerVoltage"
    "source QuasiFermiPotential" "source DisplacementCurrent" "source eCurrent" "source hCurrent" "source TotalCurrent"
    "source Charge" "drain OuterVoltage" "drain InnerVoltage" "drain QuasiFermiPotential" "drain DisplacementCurrent"
    "drain eCurrent" "drain hCurrent" "drain TotalCurrent" "drain Charge" "gate OuterVoltage"
    "gate InnerVoltage" "gate QuasiFermiPotential" "gate DisplacementCurrent" "gate eCurrent" "gate hCurrent"
    "gate TotalCurrent" "gate Charge" ]
  functions = [
    Time
    OuterVoltage InnerVoltage QuasiFermiPotential DisplacementCurrent eCurrent
    hCurrent TotalCurrent Charge OuterVoltage InnerVoltage
    QuasiFermiPotential DisplacementCurrent eCurrent hCurrent TotalCurrent
    Charge OuterVoltage InnerVoltage QuasiFermiPotential DisplacementCurrent
    eCurrent hCurrent TotalCurrent Charge OuterVoltage
    InnerVoltage QuasiFermiPotential DisplacementCurrent eCurrent hCurrent
    TotalCurrent Charge ]
}

Data {
      0.00000000000000E+00
      0.00000000000000E+00   0.00000000000000E+00   0.00000000000000E+00   0.00000000000000E+00  -2.17600636519477E-20
     -5.40954080959861E-27  -2.17600690614885E-20  -7.51112402864715E-15   0.00000000000000E+00   0.00000000000000E+00
      0.00000000000000E+00   0.00000000000000E+00   4.29545094885146E-21   1.21055588095060E-26   4.29546305441027E-21
      1.87041612664617E-15   0.00000000000000E+00   0.00000000000000E+00   0.00000000000000E+00   0.00000000000000E+00
      1.74646127024982E-20  -6.69541993758252E-27   1.74646060070782E-20   1.87041612664617E-15   3.00000000000000E+00
      3.00000000000000E+00   0.00000000000000E+00   0.00000000000000E+00   0.00000000000000E+00   0.00000000000000E+00
      0.00000000000000E+00   3.77029177535483E-15
      1.00000000000000E-02
      0.00000000000000E+00   0.00000000000000E+00   0.00000000000000E+00   0.00000000000000E+00  -2.67676721569061E-19
     -8.94469090362458E-17  -8.97145857578149E-17  -7.58660901682288E-15   0.00000000000000E+00   0.00000000000000E+00
      0.00000000000000E+00   0.00000000000000E+00  -5.66039257494758E-08  -1.18584762495856E-27  -5.66039257494758E-08
      1.87041583854920E-15   3.00000000000000E-02   3.00000000000000E-02   0.00000000000000E+00   0.00000000000000E+00
      5.66039258391852E-08   4.91492775765420E-21   5.66039258391901E-08   1.96059878163161E-15   3.00000000000000E+00
      3.00000000000000E+00   0.00000000000000E+00   0.00000000000000E+00   0.00000000000000E+00   0.00000000000000E+00
      0.00000000000000E+00   3.75559439664207E-15
      2.36666666666667E-02
      0.00000000000000E+00   0.00000000000000E+00   0.00000000000000E+00   0.00000000000000E+00   6.22163517512899E-20
     -1.70493002928794E-16  -1.70430786577043E-16  -7.68974818920646E-15   0.00000000000000E+00   0.00000000000000E+00
      0.00000000000000E+00   0.00000000000000E+00  -7.75057183125584E-08  -2.13107156956968E-26  -7.75057183125584E-08
      1.87041572843411E-15   7.10000000000000E-02   7.10000000000000E-02   0.00000000000000E+00   0.00000000000000E+00
      7.75057184829820E-08   6.60352031577517E-21   7.75057184829886E-08   2.08331807468561E-15   3.00000000000000E+00
      3.00000000000000E+00   0.00000000000000E+00   0.00000000000000E+00   0.00000000000000E+00   0.00000000000000E+00
      0.00000000000000E+00   3.73601438608675E-15
      4.32555555555556E-02
      0.00000000000000E+00   0.00000000000000E+00   0.00000000000000E+00   0.00000000000000E+00   2.41044638752504E-18
     -2.40822975611916E-16  -2.38412529224390E-16  -7.83685154801895E-15   0.00000000000000E+00   0.00000000000000E+00
      0.00000000000000E+00   0.00000000000000E+00  -8.24073033979796E-08  -1.00271279040477E-26  -8.24073033979796E-08
      1.87041570073141E-15   1.29766666666667E-01   1.29766666666667E-01   0.00000000000000E+00   0.00000000000000E+00
      8.24073036363848E-08   6.87894673733191E-21   8.24073036363916E-08   2.25814302941569E-15   3.00000000000000E+00
      3.00000000000000E+00   0.00000000000000E+00   0.00000000000000E+00   0.00000000000000E+00   0.00000000000000E+00
      0.00000000000000E+00   3.70829281787185E-15
      6.82555555555556E-02
      0.00000000000000E+00   0.00000000000000E+00   0.00000000000000E+00   0.00000000000000E+00   1.64226739858429E-16
     -2.95748651178698E-16  -1.31521911320269E-16  -8.02303983010642E-15   0.00000000000000E+00   0.00000000000000E+00
      0.00000000000000E+00   0.00000000000000E+00  -8.46063031771439E-08  -2.63193058718094E-26  -8.46063031771439E-08
      1.87041568672809E-15   2.04766666666667E-01   2.04766666666667E-01   0.00000000000000E+00   0.00000000000000E+00
      8.46063033086585E-08   6.82793216574512E-21   8.46063033086653E-08   2.47941104610641E-15   3.00000000000000E+00
      3.00000000000000E+00   0.00000000000000E+00   0.00000000000000E+00   0.00000000000000E+00   0.00000000000000E+00
      0.00000000000000E+00   3.67321309727192E-15
      9.32555555555556E-02
      0.00000000000000E+00   0.00000000000000E+00   0.00000000000000E+00   0.00000000000000E+00   6.75109128317243E-15
     -3.45981816316522E-16   6.40510946685591E-15  -8.20767230122507E-15   0.00000000000000E+00   0.00000000000000E+00
      0.00000000000000E+00   0.00000000000000E+00  -8.66510590967220E-08  -4.46439121763754E-27  -8.66510590967220E-08
      1.87041567361122E-15   2.79766666666667E-01   2.79766666666667E-01   0.00000000000000E+00   0.00000000000000E+00
      8.66510526916051E-08   6.82225573804047E-21   8.66510526916119E-08   2.69863500645763E-15   3.00000000000000E+00
      3.00000000000000E+00   0.00000000000000E+00   0.00000000000000E+00   0.00000000000000E+00   0.00000000000000E+00
      0.00000000000000E+00   3.63862162115622E-15
      1.18255555555556E-01
      0.00000000000000E+00   0.00000000000000E+00   0.00000000000000E+00   0.00000000000000E+00   7.76541830655798E-13
     -4.05419123842811E-16   7.76136411531955E-13  -8.39133906929679E-15   0.00000000000000E+00   0.00000000000000E+00
      0.00000000000000E+00   0.00000000000000E+00  -8.83298593358341E-08  -3.29336798529698E-26  -8.83298593358341E-08
      1.87041566265310E-15   3.54766666666667E-01   3.54766666666667E-01   0.00000000000000E+00   0.00000000000000E+00
      8.83290831994153E-08   6.82933354379079E-21   8.83290831994221E-08   2.91594769674296E-15   3.00000000000000E+00
      3.00000000000000E+00   0.00000000000000E+00   0.00000000000000E+00   0.00000000000000E+00   0.00000000000000E+00
      0.00000000000000E+00   3.60497570990072E-15
      1.43255555555556E-01
      0.00000000000000E+00   0.00000000000000E+00   0.00000000000000E+00   0.00000000000000E+00   4.58716519591823E-17
     -4.79216932048820E-16  -4.33345280089638E-16  -8.57467731088937E-15   0.00000000000000E+00   0.00000000000000E+00
      0.00000000000000E+00   0.00000000000000E+00  -8.95595532603882E-08  -1.70508190324567E-26  -8.95595532603882E-08
      1.87041565449616E-15   4.29766666666667E-01   4.29766666666667E-01   0.00000000000000E+00   0.00000000000000E+00
      8.95595536937261E-08   6.83583052848601E-21   8.95595536937329E-08   3.13143049302536E-15   3.00000000000000E+00
      3.00000000000000E+00   0.00000000000000E+00   0.00000000000000E+00   0.00000000000000E+00   0.00000000000000E+00
      0.00000000000000E+00   3.57283116336786E-15
      1.68255555555556E-01
      0.00000000000000E+00   0.00000000000000E+00   0.00000000000000E+00   0.00000000000000E+00   4.97647492158793E-20
     -5.58936409981813E-16  -5.58886645232597E-16  -8.75641875008973E-15   0.00000000000000E+00   0.00000000000000E+00
      0.00000000000000E+00   0.00000000000000E+00  -9.04867003507778E-08  -2.91749659879497E-26  -9.04867003507778E-08
      1.87041564825581E-15   5.04766666666667E-01   5.04766666666667E-01   0.00000000000000E+00   0.00000000000000E+00
      9.04867009096571E-08   6.84108422323272E-21   9.04867009096639E-08   3.34422596466061E-15   3.00000000000000E+00
      3.00000000000000E+00   0.00000000000000E+00   0.00000000000000E+00   0.00000000000000E+00   0.00000000000000E+00
      0.00000000000000E+00   3.54177713717333E-15
      1.93255555555556E-01
      0.00000000000000E+00   0.00000000000000E+00   0.00000000000000E+00   0.00000000000000E+00   3.92726671439318E-18
     -6.15589460946344E-16  -6.11662194231951E-16  -8.93406179633714E-15   0.00000000000000E+00   0.00000000000000E+00
      0.00000000000000E+00   0.00000000000000E+00  -9.13093815373323E-08  -1.61438887014777E-26  -9.13093815373323E-08
      1.87041564262310E-15   5.79766666666667E-01   5.79766666666667E-01   0.00000000000000E+00   0.00000000000000E+00
      9.13093821489871E-08   6.84547821366732E-21   9.13093821489939E-08   3.55266187718716E-15   3.00000000000000E+00
      3.00000000000000E+00   0.00000000000000E+00   0.00000000000000E+00   0.00000000000000E+00   0.00000000000000E+00
      0.00000000000000E+00   3.51098427652687E-15
      2.18255555555556E-01
      0.00000000000000E+00   0.00000000000000E+00   0.00000000000000E+00   0.00000000000000E+00  -1.48752230609984E-19
     -6.56599095736604E-16  -6.56747847967214E-16  -9.10521712685582E-15   0.00000000000000E+00   0.00000000000000E+00
      0.00000000000000E+00   0.00000000000000E+00  -9.20821527616329E-08  -1.61573139009237E-26  -9.20821527616329E-08
      1.87041563722430E-15   6.54766666666667E-01   6.54766666666667E-01   0.00000000000000E+00   0.00000000000000E+00
      9.20821534183733E-08   6.84924696431599E-21   9.20821534183802E-08   3.75461207755384E-15   3.00000000000000E+00
      3.00000000000000E+00   0.00000000000000E+00   0.00000000000000E+00   0.00000000000000E+00   0.00000000000000E+00
      0.00000000000000E+00   3.48018941207768E-15
      2.43255555555556E-01
      0.00000000000000E+00   0.00000000000000E+00   0.00000000000000E+00   0.00000000000000E+00   2.54943109521860E-19
     -6.90600925923704E-16  -6.90345982814183E-16  -9.26650755732262E-15   0.00000000000000E+00   0.00000000000000E+00
      0.00000000000000E+00   0.00000000000000E+00  -9.28258172730598E-08  -2.53239196952082E-26  -9.28258172730598E-08
      1.87041563193518E-15   7.29766666666667E-01   7.29766666666666E-01   0.00000000000000E+00   0.00000000000000E+00
      9.28258179633984E-08   6.85254317312452E-21   9.28258179634052E-08   3.94674137851997E-15   3.00000000000000E+00
      3.00000000000000E+00   0.00000000000000E+00   0.00000000000000E+00   0.00000000000000E+00   0.00000000000000E+00
      0.00000000000000E+00   3.44935054686748E-15
      2.68255555555556E-01
      0.00000000000000E+00   0.00000000000000E+00   0.00000000000000E+00   0.00000000000000E+00  -1.81088129113486E-19
     -7.11226386253621E-16  -7.11407474382734E-16  -9.41358370388820E-15   0.00000000000000E+00   0.00000000000000E+00
      0.00000000000000E+00   0.00000000000000E+00  -9.35526702114451E-08  -3.38442172157815E-27  -9.35526702114451E-08
      1.87041562668852E-15   8.04766666666667E-01   8.04766666666667E-01   0.00000000000000E+00   0.00000000000000E+00
      9.35526709228452E-08   6.85548614907373E-21   9.35526709228521E-08   4.12470566601071E-15   3.00000000000000E+00
      3.00000000000000E+00   0.00000000000000E+00   0.00000000000000E+00   0.00000000000000E+00   0.00000000000000E+00
      0.00000000000000E+00   3.41846241118897E-15
      2.93255555555556E-01
      0.00000000000000E+00   0.00000000000000E+00   0.00000000000000E+00   0.00000000000000E+00   8.39826191355305E-20
     -7.21183893282713E-16  -7.21099910663577E-16  -9.54532419947765E-15   0.00000000000000E+00   0.00000000000000E+00
      0.00000000000000E+00   0.00000000000000E+00  -9.42647138944309E-08  -1.53512721302467E-26  -9.42647138944309E-08
      1.87041562147486E-15   8.79766666666667E-01   8.79766666666667E-01   0.00000000000000E+00   0.00000000000000E+00
      9.42647146155234E-08   6.85814905206278E-21   9.42647146155303E-08   4.28738090654055E-15   3.00000000000000E+00
      3.00000000000000E+00   0.00000000000000E+00   0.00000000000000E+00   0.00000000000000E+00   0.00000000000000E+00
      0.00000000000000E+00   3.38752767146225E-15
      3.18255555555556E-01
      0.00000000000000E+00   0.00000000000000E+00   0.00000000000000E+00   0.00000000000000E+00  -1.96916285555615E-19
     -7.29760841634483E-16  -7.29957757920038E-16  -9.66721045743868E-15   0.00000000000000E+00   0.00000000000000E+00
      0.00000000000000E+00   0.00000000000000E+00  -9.49609834759162E-08  -2.72174737519243E-26  -9.49609834759162E-08
      1.87041561630288E-15   9.54766666666667E-01   9.54766666666667E-01   0.00000000000000E+00   0.00000000000000E+00
      9.49609842058666E-08   6.86055344641765E-21   9.49609842058734E-08   4.44024203967492E-15   3.00000000000000E+00
      3.00000000000000E+00   0.00000000000000E+00   0.00000000000000E+00   0.00000000000000E+00   0.00000000000000E+00
      0.00000000000000E+00   3.35655280146089E-15
      3.43255555555556E-01
      0.00000000000000E+00   0.00000000000000E+00   0.00000000000000E+00   0.00000000000000E+00  -6.46915371411706E-20
     -7.45415039246869E-16  -7.45479730784010E-16  -9.78486860250904E-15   0.00000000000000E+00   0.00000000000000E+00
      0.00000000000000E+00   0.00000000000000E+00  -9.56399844609971E-08  -1.87015658690924E-26  -9.56399844609971E-08
      1.87041561118548E-15   1.02976666666667E+00   1.02976666666667E+00   0.00000000000000E+00   0.00000000000000E+00
      9.56399852064694E-08   6.86272133994123E-21   9.56399852064763E-08   4.58890665223385E-15   3.00000000000000E+00
      3.00000000000000E+00   0.00000000000000E+00   0.00000000000000E+00   0.00000000000000E+00   0.00000000000000E+00
      0.00000000000000E+00   3.32554633908970E-15
      3.68255555555556E-01
      0.00000000000000E+00   0.00000000000000E+00   0.00000000000000E+00   0.00000000000000E+00   8.14827343172217E-20
     -7.72308171625603E-16  -7.72226688891286E-16  -9.90059622194389E-15   0.00000000000000E+00   0.00000000000000E+00
      0.00000000000000E+00   0.00000000000000E+00  -9.63005720995725E-08  -3.27976668249230E-26  -9.63005720995725E-08
      1.87041560613390E-15   1.10476666666667E+00   1.10476666666667E+00   0.00000000000000E+00   0.00000000000000E+00
      9.63005728717918E-08   6.86469354163047E-21   9.63005728717986E-08   4.73566383323537E-15   3.00000000000000E+00
      3.00000000000000E+00   0.00000000000000E+00   0.00000000000000E+00   0.00000000000000E+00   0.00000000000000E+00
      0.00000000000000E+00   3.29451678257463E-15
      3.93255555555556E-01
      0.00000000000000E+00   0.00000000000000E+00   0.00000000000000E+00   0.00000000000000E+00   3.12150546424699E-20
     -8.10831447077277E-16  -8.10800232022635E-16  -1.00150538940402E-14   0.00000000000000E+00   0.00000000000000E+00
      0.00000000000000E+00   0.00000000000000E+00  -9.69423642286260E-08   1.29407969317894E-26  -9.69423642286260E-08
      1.87041560115431E-15   1.17976666666667E+00   1.17976666666667E+00   0.00000000000000E+00   0.00000000000000E+00
      9.69423650394188E-08   6.86651480071326E-21   9.69423650394257E-08   4.88116740469078E-15   3.00000000000000E+00
      3.00000000000000E+00   0.00000000000000E+00   0.00000000000000E+00   0.00000000000000E+00   0.00000000000000E+00
      0.00000000000000E+00   3.26347088819507E-15
      4.18255555555556E-01
      0.00000000000000E+00   0.00000000000000E+00   0.00000000000000E+00   0.00000000000000E+00  -2.47126591869844E-19
     -8.71801390477994E-16  -8.72048517069864E-16  -1.01284343844102E-14   0.00000000000000E+00   0.00000000000000E+00
      0.00000000000000E+00   0.00000000000000E+00  -9.75657477205388E-08  -5.46303418183346E-26  -9.75657477205388E-08
      1.87041559624740E-15   1.25476666666667E+00   1.25476666666667E+00   0.00000000000000E+00   0.00000000000000E+00
      9.75657485925799E-08   6.86820282782594E-21   9.75657485925868E-08   5.02560566604969E-15   3.00000000000000E+00
      3.00000000000000E+00   0.00000000000000E+00   0.00000000000000E+00   0.00000000000000E+00   0.00000000000000E+00
      0.00000000000000E+00   3.23241312211312E-15
      4.43255555555556E-01
      0.00000000000000E+00   0.00000000000000E+00   0.00000000000000E+00   0.00000000000000E+00  -1.31229959988557E-19
     -9.84426414664131E-16  -9.84557644624120E-16  -1.02408439300790E-14   0.00000000000000E+00   0.00000000000000E+00
      0.00000000000000E+00   0.00000000000000E+00  -9.81716894753108E-08  -4.17434963232267E-26  -9.81716894753108E-08
      1.87041559140936E-15   1.32976666666667E+00   1.32976666666667E+00   0.00000000000000E+00   0.00000000000000E+00
      9.81716904598611E-08   6.86975425132471E-21   9.81716904598679E-08   5.16908246182957E-15   3.00000000000000E+00
      3.00000000000000E+00   0.00000000000000E+00   0.00000000000000E+00   0.00000000000000E+00   0.00000000000000E+00
      0.00000000000000E+00   3.20134587684002E-15
      4.68255555555556E-01
      0.00000000000000E+00   0.00000000000000E+00   0.00000000000000E+00   0.00000000000000E+00  -1.23335724855994E-19
     -1.22347892557228E-15  -1.22360226129714E-15  -1.03524017819415E-14   0.00000000000000E+00   0.00000000000000E+00
      0.00000000000000E+00   0.00000000000000E+00  -9.87614827584894E-08  -1.64138780704711E-26  -9.87614827584894E-08
      1.87041558663358E-15   1.40476666666667E+00   1.40476666666667E+00   0.00000000000000E+00   0.00000000000000E+00
      9.87614839820843E-08   6.87117679816667E-21   9.87614839820911E-08   5.31171608990397E-15   3.00000000000000E+00
      3.00000000000000E+00   0.00000000000000E+00   0.00000000000000E+00   0.00000000000000E+00   0.00000000000000E+00
      0.00000000000000E+00   3.17027010540397E-15
      4.93255555555556E-01
      0.00000000000000E+00   0.00000000000000E+00   0.00000000000000E+00   0.00000000000000E+00  -5.50533334447149E-20
     -1.60268561532002E-15  -1.60274066865347E-15  -1.04632220961189E-14   0.00000000000000E+00   0.00000000000000E+00
      0.00000000000000E+00   0.00000000000000E+00  -9.93365134068855E-08  -2.08373536629190E-26  -9.93365134068855E-08
      1.87041558191251E-15   1.47976666666667E+00   1.47976666666667E+00   0.00000000000000E+00   0.00000000000000E+00
      9.93365150096187E-08   6.87248916010433E-21   9.93365150096256E-08   5.45362044382139E-15   3.00000000000000E+00
      3.00000000000000E+00   0.00000000000000E+00   0.00000000000000E+00   0.00000000000000E+00   0.00000000000000E+00
      0.00000000000000E+00   3.13918607038500E-15
      5.18255555555556E-01
      0.00000000000000E+00   0.00000000000000E+00   0.00000000000000E+00   0.00000000000000E+00   5.47735087938584E-20
     -1.88145511382046E-15  -1.88140034031166E-15  -1.05733898771477E-14   0.00000000000000E+00   0.00000000000000E+00
      0.00000000000000E+00   0.00000000000000E+00  -9.98980961796523E-08  -3.15935356401113E-26  -9.98980961796523E-08
      1.87041557723907E-15   1.55476666666667E+00   1.55476666666667E+00   0.00000000000000E+00   0.00000000000000E+00
      9.98980980610452E-08   6.87371073925020E-21   9.98980980610520E-08   5.59488033660647E-15   3.00000000000000E+00
      3.00000000000000E+00   0.00000000000000E+00   0.00000000000000E+00   0.00000000000000E+00   0.00000000000000E+00
      0.00000000000000E+00   3.10809396330212E-15
      5.43255555555556E-01
      0.00000000000000E+00   0.00000000000000E+00   0.00000000000000E+00   0.00000000000000E+00  -1.66236104544323E-19
     -1.99662946314602E-15  -1.99679569925056E-15  -1.06829757185322E-14   0.00000000000000E+00   0.00000000000000E+00
      0.00000000000000E+00   0.00000000000000E+00  -1.00447405239674E-07  -8.66449474469933E-27  -1.00447405239674E-07
      1.87041557260690E-15   1.62976666666667E+00   1.62976666666667E+00   0.00000000000000E+00   0.00000000000000E+00
      1.00447407236463E-07   6.87485729517526E-21   1.00447407236470E-07   5.73556592543401E-15   3.00000000000000E+00
      3.00000000000000E+00   0.00000000000000E+00   0.00000000000000E+00   0.00000000000000E+00   0.00000000000000E+00
      0.00000000000000E+00   3.07699422049128E-15
      5.68255555555556E-01
      0.00000000000000E+00   0.00000000000000E+00   0.00000000000000E+00   0.00000000000000E+00   3.57627073618638E-20
     -2.04443235967544E-15  -2.04439659696808E-15  -1.07920549538127E-14   0.00000000000000E+00   0.00000000000000E+00
      0.00000000000000E+00   0.00000000000000E+00  -1.00985496809006E-07  -2.21924001913360E-26  -1.00985496809006E-07
      1.87041556801013E-15   1.70476666666667E+00   1.70476666666667E+00   0.00000000000000E+00   0.00000000000000E+00
      1.00985498853396E-07   6.87594072571879E-21   1.00985498853402E-07   5.87575192008503E-15   3.00000000000000E+00
      3.00000000000000E+00   0.00000000000000E+00   0.00000000000000E+00   0.00000000000000E+00   0.00000000000000E+00
      0.00000000000000E+00   3.04588746571749E-15
      5.93255555555556E-01
      0.00000000000000E+00   0.00000000000000E+00   0.00000000000000E+00   0.00000000000000E+00  -6.75061816579016E-21
     -2.07104455879009E-15  -2.07105130940826E-15  -1.09007028264717E-14   0.00000000000000E+00   0.00000000000000E+00
      0.00000000000000E+00   0.00000000000000E+00  -1.01513371563732E-07  -7.55713636455661E-27  -1.01513371563732E-07
      1.87041556344322E-15   1.77976666666667E+00   1.77976666666667E+00   0.00000000000000E+00   0.00000000000000E+00
      1.01513373634776E-07   6.87696993864221E-21   1.01513373634783E-07   6.01551300655302E-15   3.00000000000000E+00
      3.00000000000000E+00   0.00000000000000E+00   0.00000000000000E+00   0.00000000000000E+00   0.00000000000000E+00
      0.00000000000000E+00   3.01477425647550E-15
      6.18255555555556E-01
      0.00000000000000E+00   0.00000000000000E+00   0.00000000000000E+00   0.00000000000000E+00   7.46048130130745E-21
     -2.09414485832327E-15  -2.09413739784196E-15  -1.10089745979784E-14   0.00000000000000E+00   0.00000000000000E+00
      0.00000000000000E+00   0.00000000000000E+00  -1.02032010403740E-07  -1.32622207550304E-26  -1.02032010403740E-07
      1.87041555889989E-15   1.85476666666667E+00   1.85476666666667E+00   0.00000000000000E+00   0.00000000000000E+00
      1.02032012497870E-07   6.87792902652213E-21   1.02032012497877E-07   6.15490413601406E-15   3.00000000000000E+00
      3.00000000000000E+00   0.00000000000000E+00   0.00000000000000E+00   0.00000000000000E+00   0.00000000000000E+00
      0.00000000000000E+00   2.98365490306450E-15
      6.43255555555556E-01
      0.00000000000000E+00   0.00000000000000E+00   0.00000000000000E+00   0.00000000000000E+00   1.85250718982778E-19
     -2.11596007836444E-15  -2.11577482764546E-15  -1.11168917345023E-14   0.00000000000000E+00   0.00000000000000E+00
      0.00000000000000E+00   0.00000000000000E+00  -1.02542392016464E-07  -2.26346713428902E-26  -1.02542392016464E-07
      1.87041555437481E-15   1.92976666666667E+00   1.92976666666667E+00   0.00000000000000E+00   0.00000000000000E+00
      1.02542394132232E-07   6.87886485988069E-21   1.02542394132239E-07   6.29394675439178E-15   3.00000000000000E+00
      3.00000000000000E+00   0.00000000000000E+00   0.00000000000000E+00   0.00000000000000E+00   0.00000000000000E+00
      0.00000000000000E+00   2.95252942573578E-15
      6.68255555555556E-01
      0.00000000000000E+00   0.00000000000000E+00   0.00000000000000E+00   0.00000000000000E+00  -7.61710265260794E-20
     -2.13438643944111E-15  -2.13446261046764E-15  -1.12244401345292E-14   0.00000000000000E+00   0.00000000000000E+00
      0.00000000000000E+00   0.00000000000000E+00  -1.03045467554194E-07  -1.57589611168351E-26  -1.03045467554194E-07
      1.87041554986107E-15   2.00476666666667E+00   2.00476666666667E+00   0.00000000000000E+00   0.00000000000000E+00
      1.03045469688649E-07   6.87875002340209E-21   1.03045469688656E-07   6.43262696367712E-15   3.00000000000000E+00
      3.00000000000000E+00   0.00000000000000E+00   0.00000000000000E+00   0.00000000000000E+00   0.00000000000000E+00
      0.00000000000000E+00   2.92139762099099E-15
      6.93255555555556E-01
      0.00000000000000E+00   0.00000000000000E+00   0.00000000000000E+00   0.00000000000000E+00  -3.28924634966272E-19
     -2.15080293345915E-15  -2.15113185809411E-15  -1.13315739300810E-14   0.00000000000000E+00   0.00000000000000E+00
      0.00000000000000E+00   0.00000000000000E+00  -1.03542149908349E-07  -4.09115803505234E-26  -1.03542149908349E-07
      1.87041554534919E-15   2.07976666666667E+00   2.07976666666667E+00   0.00000000000000E+00   0.00000000000000E+00
      1.03542152059473E-07   6.86128445370867E-21   1.03542152059480E-07   6.57089924426709E-15   3.00000000000000E+00
      3.00000000000000E+00   0.00000000000000E+00   0.00000000000000E+00   0.00000000000000E+00   0.00000000000000E+00
      0.00000000000000E+00   2.89025914046470E-15
      7.18255555555556E-01
      0.00000000000000E+00   0.00000000000000E+00   0.00000000000000E+00   0.00000000000000E+00  -1.97048505492922E-19
     -2.16725431683675E-15  -2.16745136534225E-15  -1.14382196330652E-14   0.00000000000000E+00   0.00000000000000E+00
      0.00000000000000E+00   0.00000000000000E+00  -1.04033296412607E-07  -2.68878230632424E-26  -1.04033296412607E-07
      1.87041554085142E-15   2.15476666666667E+00   2.15476666666667E+00   0.00000000000000E+00   0.00000000000000E+00
      1.04033298580051E-07   6.88125675215025E-21   1.04033298580058E-07   6.70869050585478E-15   3.00000000000000E+00
      3.00000000000000E+00   0.00000000000000E+00   0.00000000000000E+00   0.00000000000000E+00   0.00000000000000E+00
      0.00000000000000E+00   2.85911358635900E-15
      7.43255555555556E-01
      0.00000000000000E+00   0.00000000000000E+00   0.00000000000000E+00   0.00000000000000E+00  -1.22084014813040E-20
     -2.18512695943464E-15  -2.18513916783612E-15  -1.15442803800540E-14   0.00000000000000E+00   0.00000000000000E+00
      0.00000000000000E+00   0.00000000000000E+00  -1.04519690569934E-07  -2.51415699247631E-26  -1.04519690569934E-07
      1.87041553634057E-15   2.22976666666667E+00   2.22976666666667E+00   0.00000000000000E+00   0.00000000000000E+00
      1.04519692755066E-07   6.88178643303849E-21   1.04519692755073E-07   6.84590422395533E-15   3.00000000000000E+00
      3.00000000000000E+00   0.00000000000000E+00   0.00000000000000E+00   0.00000000000000E+00   0.00000000000000E+00
      0.00000000000000E+00   2.82796061975811E-15
      7.68255555555556E-01
      0.00000000000000E+00   0.00000000000000E+00   0.00000000000000E+00   0.00000000000000E+00   2.01291030660125E-19
     -2.20479129317156E-15  -2.20459000214090E-15  -1.16496451257943E-14   0.00000000000000E+00   0.00000000000000E+00
      0.00000000000000E+00   0.00000000000000E+00  -1.05002026702868E-07  -9.89339781643583E-27  -1.05002026702868E-07
      1.87041553181987E-15   2.30476666666667E+00   2.30476666666667E+00   0.00000000000000E+00   0.00000000000000E+00
      1.05002028907450E-07   6.88223909310341E-21   1.05002028907457E-07   6.98242953829809E-15   3.00000000000000E+00
      3.00000000000000E+00   0.00000000000000E+00   0.00000000000000E+00   0.00000000000000E+00   0.00000000000000E+00
      0.00000000000000E+00   2.79680005567638E-15
      7.93255555555556E-01
      0.00000000000000E+00   0.00000000000000E+00   0.00000000000000E+00   0.00000000000000E+00  -3.83433471617339E-19
     -2.22589313566545E-15  -2.22627656913707E-15  -1.17542151924210E-14   0.00000000000000E+00   0.00000000000000E+00
      0.00000000000000E+00   0.00000000000000E+00  -1.05480908967350E-07  -1.65109357325220E-26  -1.05480908967350E-07
      1.87041552728508E-15   2.37976666666667E+00   2.37976666666667E+00   0.00000000000000E+00   0.00000000000000E+00
      1.05480911193620E-07   6.88267431240930E-21   1.05480911193626E-07   7.11816777867857E-15   3.00000000000000E+00
      3.00000000000000E+00   0.00000000000000E+00   0.00000000000000E+00   0.00000000000000E+00   0.00000000000000E+00
      0.00000000000000E+00   2.76563188645730E-15
      8.18255555555556E-01
      0.00000000000000E+00   0.00000000000000E+00   0.00000000000000E+00   0.00000000000000E+00  -4.30333357529432E-20
     -2.24538665554443E-15  -2.24542968888019E-15  -1.18579551340188E-14   0.00000000000000E+00   0.00000000000000E+00
      0.00000000000000E+00   0.00000000000000E+00  -1.05956867867650E-07  -4.31845345871696E-26  -1.05956867867650E-07
      1.87041552273247E-15   2.45476666666667E+00   2.45476666666667E+00   0.00000000000000E+00   0.00000000000000E+00
      1.05956870113072E-07   6.88311187599164E-21   1.05956870113079E-07   7.25308340051330E-15   3.00000000000000E+00
      3.00000000000000E+00   0.00000000000000E+00   0.00000000000000E+00   0.00000000000000E+00   0.00000000000000E+00
      0.00000000000000E+00   2.73445621077301E-15
      8.43255555555556E-01
      0.00000000000000E+00   0.00000000000000E+00   0.00000000000000E+00   0.00000000000000E+00  -1.03263860947464E-20
     -2.26221882086268E-15  -2.26222914724877E-15  -1.19609234230417E-14   0.00000000000000E+00   0.00000000000000E+00
      0.00000000000000E+00   0.00000000000000E+00  -1.06430382150400E-07  -2.78290596416133E-26  -1.06430382150400E-07
      1.87041551815861E-15   2.52976666666667E+00   2.52976666666667E+00   0.00000000000000E+00   0.00000000000000E+00
      1.06430384412622E-07   6.88355602803667E-21   1.06430384412629E-07   7.38723477651947E-15   3.00000000000000E+00
      3.00000000000000E+00   0.00000000000000E+00   0.00000000000000E+00   0.00000000000000E+00   0.00000000000000E+00
      0.00000000000000E+00   2.70327312836358E-15
      8.68255555555556E-01
      0.00000000000000E+00   0.00000000000000E+00   0.00000000000000E+00   0.00000000000000E+00  -2.43625903411690E-20