DF-ISE text

Info {
  version   = 1.0
  type      = xyplot
  datasets  = [
    "time"
    "substrate OuterVoltage" "substrate InnerVoltage" "substrate QuasiFermiPotential" "substrate DisplacementCurrent" "substrate eCurrent"
    "substrate hCurrent" "substrate TotalCurrent" "substrate Charge" "source OuterVoltage" "source InnerVoltage"
    "source QuasiFermiPotential" "source DisplacementCurrent" "source eCurrent" "source hCurrent" "source TotalCurrent"
    "source Charge" "drain OuterVoltage" "drain InnerVoltage" "drain QuasiFermiPotential" "drain DisplacementCurrent"
    "drain eCurrent" "drain hCurrent" "drain TotalCurrent" "drain Charge" "gate OuterVoltage"
    "gate InnerVoltage" "gate QuasiFermiPotential" "gate DisplacementCurrent" "gate eCurrent" "gate hCurrent"
    "gate TotalCurrent" "gate Charge" ]
  functions = [
    Time
    OuterVoltage InnerVoltage QuasiFermiPotential DisplacementCurrent eCurrent
    hCurrent TotalCurrent Charge OuterVoltage InnerVoltage
    QuasiFermiPotential DisplacementCurrent eCurrent hCurrent TotalCurrent
    Charge OuterVoltage InnerVoltage QuasiFermiPotential DisplacementCurrent
    eCurrent hCurrent TotalCurrent Charge OuterVoltage
    InnerVoltage QuasiFermiPotential DisplacementCurrent eCurrent hCurrent
    TotalCurrent Charge ]
}

Data {
      0.00000000000000E+00
      0.00000000000000E+00   0.00000000000000E+00   0.00000000000000E+00   0.00000000000000E+00   9.02467892138881E-19
      4.59517370473261E-28   9.02467892598398E-19  -3.11455877038333E-15   0.00000000000000E+00   0.00000000000000E+00
      0.00000000000000E+00   0.00000000000000E+00  -1.15970399470045E-18  -1.96265028307754E-28  -1.15970399489672E-18
      6.73906647625276E-16   0.00000000000000E+00   0.00000000000000E+00   0.00000000000000E+00   0.00000000000000E+00
      2.57236102561691E-19  -2.63371311963042E-28   2.57236102298320E-19   6.73906647625276E-16   2.00000000000000E+00
      2.00000000000000E+00   0.00000000000000E+00   0.00000000000000E+00   0.00000000000000E+00   0.00000000000000E+00
      0.00000000000000E+00   1.76674547513278E-15
      1.00000000000000E-02
      0.00000000000000E+00   0.00000000000000E+00   0.00000000000000E+00   0.00000000000000E+00  -2.06332269451207E-18
     -1.23524527334937E-16  -1.25587850029449E-16  -3.13323480677854E-15   0.00000000000000E+00   0.00000000000000E+00
      0.00000000000000E+00   0.00000000000000E+00  -6.15030103966728E-05  -4.41633953919607E-24  -6.15030103966728E-05
      6.73690426363039E-16   3.00000000000000E-02   3.00000000000000E-02   0.00000000000000E+00   0.00000000000000E+00
      6.15030103967984E-05   9.68479078853027E-21   6.15030103967984E-05   7.10512600956704E-16   2.00000000000000E+00
      2.00000000000000E+00   0.00000000000000E+00   0.00000000000000E+00   0.00000000000000E+00   0.00000000000000E+00
      0.00000000000000E+00   1.74903177945880E-15
      2.33333333333333E-02
      0.00000000000000E+00   0.00000000000000E+00   0.00000000000000E+00   0.00000000000000E+00  -3.32681343028762E-18
     -2.68721205057203E-16  -2.72048018487491E-16  -3.15815241990409E-15   0.00000000000000E+00   0.00000000000000E+00
      0.00000000000000E+00   0.00000000000000E+00  -1.21651916354832E-04  -8.73907678681934E-24  -1.21651916354832E-04
      6.73331906696891E-16   7.00000000000000E-02   7.00000000000000E-02   0.00000000000000E+00   0.00000000000000E+00
      1.21651916355104E-04   1.27728047236414E-20   1.21651916355104E-04   7.59161003369862E-16   2.00000000000000E+00
      2.00000000000000E+00   0.00000000000000E+00   0.00000000000000E+00   0.00000000000000E+00   0.00000000000000E+00
      0.00000000000000E+00   1.72565950983734E-15
      4.24444444444445E-02
      0.00000000000000E+00   0.00000000000000E+00   0.00000000000000E+00   0.00000000000000E+00   9.72591713630461E-18
     -4.36688278786007E-16  -4.26962361649703E-16  -3.19422828535507E-15   0.00000000000000E+00   0.00000000000000E+00
      0.00000000000000E+00   0.00000000000000E+00  -1.75265335687986E-04  -1.25959932953328E-23  -1.75265335687986E-04
      6.72774914894024E-16   1.27333333333333E-01   1.27333333333333E-01   0.00000000000000E+00   0.00000000000000E+00
      1.75265335688413E-04   1.31799811639603E-20   1.75265335688413E-04   8.28563499313797E-16   2.00000000000000E+00
      2.00000000000000E+00   0.00000000000000E+00   0.00000000000000E+00   0.00000000000000E+00   0.00000000000000E+00
      0.00000000000000E+00   1.69288987114724E-15
      6.74444444444444E-02
      0.00000000000000E+00   0.00000000000000E+00   0.00000000000000E+00   0.00000000000000E+00  -3.12677869335135E-16
     -5.69450493394368E-16  -8.82128362729503E-16  -3.24274941598843E-15   0.00000000000000E+00   0.00000000000000E+00
      0.00000000000000E+00   0.00000000000000E+00  -2.11492319249769E-04  -1.52071619140368E-23  -2.11492319249769E-04
      6.72101203803603E-16   2.02333333333333E-01   2.02333333333333E-01   0.00000000000000E+00   0.00000000000000E+00
      2.11492319250651E-04   1.30970238919826E-20   2.11492319250651E-04   9.18843297660933E-16   2.00000000000000E+00
      2.00000000000000E+00   0.00000000000000E+00   0.00000000000000E+00   0.00000000000000E+00   0.00000000000000E+00
      0.00000000000000E+00   1.65180491452390E-15
      9.24444444444444E-02
      0.00000000000000E+00   0.00000000000000E+00   0.00000000000000E+00   0.00000000000000E+00   2.45241292472565E-16
     -6.40725053464051E-16  -3.95483760991486E-16  -3.29327061164388E-15   0.00000000000000E+00   0.00000000000000E+00
      0.00000000000000E+00   0.00000000000000E+00  -2.30792244354856E-04  -1.65947022702383E-23  -2.30792244354856E-04
      6.71520276845692E-16   2.77333333333333E-01   2.77333333333333E-01   0.00000000000000E+00   0.00000000000000E+00
      2.30792244355252E-04   1.31385589232802E-20   2.30792244355252E-04   1.00874096720513E-15   2.00000000000000E+00
      2.00000000000000E+00   0.00000000000000E+00   0.00000000000000E+00   0.00000000000000E+00   0.00000000000000E+00
      0.00000000000000E+00   1.61300936759306E-15
      1.17444444444444E-01
      0.00000000000000E+00   0.00000000000000E+00   0.00000000000000E+00   0.00000000000000E+00  -3.56409531484598E-15
     -6.81627561875876E-16  -4.24572287672186E-15  -3.34528175572276E-15   0.00000000000000E+00   0.00000000000000E+00
      0.00000000000000E+00   0.00000000000000E+00  -2.44069548378558E-04  -1.75495980917530E-23  -2.44069548378558E-04
      6.70988227297339E-16   3.52333333333333E-01   3.52333333333333E-01   0.00000000000000E+00   0.00000000000000E+00
      2.44069548382803E-04   1.31760682298180E-20   2.44069548382803E-04   1.09829735988277E-15   2.00000000000000E+00
      2.00000000000000E+00   0.00000000000000E+00   0.00000000000000E+00   0.00000000000000E+00   0.00000000000000E+00
      0.00000000000000E+00   1.57599616854265E-15
      1.42444444444444E-01
      0.00000000000000E+00   0.00000000000000E+00   0.00000000000000E+00   0.00000000000000E+00  -1.88126215773617E-13
     -7.11923663332203E-16  -1.88838139436950E-13  -3.39807831084690E-15   0.00000000000000E+00   0.00000000000000E+00
      0.00000000000000E+00   0.00000000000000E+00  -2.55232217408342E-04  -1.83540856645935E-23  -2.55232217408342E-04
      6.70461016867885E-16   4.27333333333333E-01   4.27333333333333E-01   0.00000000000000E+00   0.00000000000000E+00
      2.55232217597180E-04   1.32057954882849E-20   2.55232217597180E-04   1.18750318977153E-15   2.00000000000000E+00
      2.00000000000000E+00   0.00000000000000E+00   0.00000000000000E+00   0.00000000000000E+00   0.00000000000000E+00
      0.00000000000000E+00   1.54011410420748E-15
      1.67444444444444E-01
      0.00000000000000E+00   0.00000000000000E+00   0.00000000000000E+00   0.00000000000000E+00   1.29183160709715E-17
     -7.38121424097647E-16  -7.25203108026676E-16  -3.45210645508342E-15   0.00000000000000E+00   0.00000000000000E+00
      0.00000000000000E+00   0.00000000000000E+00  -2.64990378096028E-04  -1.90570692603210E-23  -2.64990378096028E-04
      6.69934948673324E-16   5.02333333333333E-01   5.02333333333333E-01   0.00000000000000E+00   0.00000000000000E+00
      2.64990378096753E-04   1.32286232462975E-20   2.64990378096753E-04   1.27662261407303E-15   2.00000000000000E+00
      2.00000000000000E+00   0.00000000000000E+00   0.00000000000000E+00   0.00000000000000E+00   0.00000000000000E+00
      0.00000000000000E+00   1.50554889233706E-15
      1.92444444444444E-01
      0.00000000000000E+00   0.00000000000000E+00   0.00000000000000E+00   0.00000000000000E+00  -2.15177947746929E-18
     -7.58362014945411E-16  -7.60513794422880E-16  -3.50707850083267E-15   0.00000000000000E+00   0.00000000000000E+00
      0.00000000000000E+00   0.00000000000000E+00  -2.73724798578313E-04  -1.96865226440337E-23  -2.73724798578313E-04
      6.69407028109474E-16   5.77333333333333E-01   5.77333333333333E-01   0.00000000000000E+00   0.00000000000000E+00
      2.73724798579073E-04   1.32467781145684E-20   2.73724798579073E-04   1.36550307199206E-15   2.00000000000000E+00
      2.00000000000000E+00   0.00000000000000E+00   0.00000000000000E+00   0.00000000000000E+00   0.00000000000000E+00
      0.00000000000000E+00   1.47216840073113E-15
      2.17444444444444E-01
      0.00000000000000E+00   0.00000000000000E+00   0.00000000000000E+00   0.00000000000000E+00   1.50064701690705E-17
     -7.74069310626210E-16  -7.59062840457140E-16  -3.56152236311825E-15   0.00000000000000E+00   0.00000000000000E+00
      0.00000000000000E+00   0.00000000000000E+00  -2.82061644679711E-04  -2.02879218735281E-23  -2.82061644679711E-04
      6.68860159905481E-16   6.52333333333333E-01   6.52333333333333E-01   0.00000000000000E+00   0.00000000000000E+00
      2.82061644680470E-04   1.32615175582358E-20   2.82061644680470E-04   1.45342696087139E-15   2.00000000000000E+00
      2.00000000000000E+00   0.00000000000000E+00   0.00000000000000E+00   0.00000000000000E+00   0.00000000000000E+00
      0.00000000000000E+00   1.43923524234138E-15
      2.42444444444444E-01
      0.00000000000000E+00   0.00000000000000E+00   0.00000000000000E+00   0.00000000000000E+00   3.72612294791149E-17
     -7.90540600366700E-16  -7.53279370887585E-16  -3.61465506790594E-15   0.00000000000000E+00   0.00000000000000E+00
      0.00000000000000E+00   0.00000000000000E+00  -2.90238950030517E-04  -2.08778811164916E-23  -2.90238950030517E-04
      6.68286554841984E-16   7.27333333333333E-01   7.27333333333333E-01   0.00000000000000E+00   0.00000000000000E+00
      2.90238950031271E-04   1.32730495579574E-20   2.90238950031271E-04   1.53990011725585E-15   2.00000000000000E+00
      2.00000000000000E+00   0.00000000000000E+00   0.00000000000000E+00   0.00000000000000E+00   0.00000000000000E+00
      0.00000000000000E+00   1.40646839580811E-15
      2.67444444444444E-01
      0.00000000000000E+00   0.00000000000000E+00   0.00000000000000E+00   0.00000000000000E+00   1.99500121210627E-16
     -8.10089769450467E-16  -6.10589648239840E-16  -3.66612263741648E-15   0.00000000000000E+00   0.00000000000000E+00
      0.00000000000000E+00   0.00000000000000E+00  -2.98295405060443E-04  -2.14587222434656E-23  -2.98295405060443E-04
      6.67684241012731E-16   8.02333333333333E-01   8.02333333333333E-01   0.00000000000000E+00   0.00000000000000E+00
      2.98295405061054E-04   1.32819006675742E-20   2.98295405061054E-04   1.62457232755918E-15   2.00000000000000E+00
      2.00000000000000E+00   0.00000000000000E+00   0.00000000000000E+00   0.00000000000000E+00   0.00000000000000E+00
      0.00000000000000E+00   1.37386606884457E-15
      2.92444444444444E-01
      0.00000000000000E+00   0.00000000000000E+00   0.00000000000000E+00   0.00000000000000E+00   7.80650872833096E-16
     -8.32798016615805E-16  -5.21471437827097E-17  -3.71584033859793E-15   0.00000000000000E+00   0.00000000000000E+00
      0.00000000000000E+00   0.00000000000000E+00  -3.06232039626555E-04  -2.20314336245973E-23  -3.06232039626555E-04
      6.67052118713772E-16   8.77333333333333E-01   8.77333333333333E-01   0.00000000000000E+00   0.00000000000000E+00
      3.06232039626607E-04   1.32895496872735E-20   3.06232039626607E-04   1.70729293809895E-15   2.00000000000000E+00
      2.00000000000000E+00   0.00000000000000E+00   0.00000000000000E+00   0.00000000000000E+00   0.00000000000000E+00
      0.00000000000000E+00   1.34149528178521E-15
      3.17444444444444E-01
      0.00000000000000E+00   0.00000000000000E+00   0.00000000000000E+00   0.00000000000000E+00   1.64092047102512E-15
     -8.58508626326554E-16   7.82411844698567E-16  -3.76419622485888E-15   0.00000000000000E+00   0.00000000000000E+00
      0.00000000000000E+00   0.00000000000000E+00  -3.14039437397014E-04  -2.25941493531871E-23  -3.14039437397014E-04
      6.66389354419067E-16   9.52333333333333E-01   9.52333333333333E-01   0.00000000000000E+00   0.00000000000000E+00
      3.14039437396232E-04   1.32967619949776E-20   3.14039437396232E-04   1.78834774122847E-15   2.00000000000000E+00
      2.00000000000000E+00   0.00000000000000E+00   0.00000000000000E+00   0.00000000000000E+00   0.00000000000000E+00
      0.00000000000000E+00   1.30945912921134E-15
      3.42444444444444E-01
      0.00000000000000E+00   0.00000000000000E+00   0.00000000000000E+00   0.00000000000000E+00   6.55616502818630E-16
     -8.83849731538665E-16  -2.28233228720035E-16  -3.81192808721681E-15   0.00000000000000E+00   0.00000000000000E+00
      0.00000000000000E+00   0.00000000000000E+00  -3.21702792609142E-04  -2.31472998942236E-23  -3.21702792609142E-04
      6.65695628348550E-16   1.02733333333333E+00   1.02733333333333E+00   0.00000000000000E+00   0.00000000000000E+00
      3.21702792609370E-04   1.33037690930982E-20   3.21702792609370E-04   1.86835714380234E-15   2.00000000000000E+00
      2.00000000000000E+00   0.00000000000000E+00   0.00000000000000E+00   0.00000000000000E+00   0.00000000000000E+00
      0.00000000000000E+00   1.27787531506592E-15
      3.67444444444445E-01
      0.00000000000000E+00   0.00000000000000E+00   0.00000000000000E+00   0.00000000000000E+00   4.70436984480992E-17
     -9.04534323339760E-16  -8.57490624891661E-16  -3.85958513605680E-15   0.00000000000000E+00   0.00000000000000E+00
      0.00000000000000E+00   0.00000000000000E+00  -3.29214657663979E-04  -2.36896656250289E-23  -3.29214657663979E-04
      6.64970865145073E-16   1.10233333333333E+00   1.10233333333333E+00   0.00000000000000E+00   0.00000000000000E+00
      3.29214657664836E-04   1.33106144583636E-20   3.29214657664836E-04   1.94781185673446E-15   2.00000000000000E+00
      2.00000000000000E+00   0.00000000000000E+00   0.00000000000000E+00   0.00000000000000E+00   0.00000000000000E+00
      0.00000000000000E+00   1.24680241417726E-15
      3.92444444444445E-01
      0.00000000000000E+00   0.00000000000000E+00   0.00000000000000E+00   0.00000000000000E+00   3.86493623661870E-18
     -9.22569147059445E-16  -9.18704210822826E-16  -3.90716745427188E-15   0.00000000000000E+00   0.00000000000000E+00
      0.00000000000000E+00   0.00000000000000E+00  -3.36595810787230E-04  -2.42219920452673E-23  -3.36595810787230E-04
      6.64214121033745E-16   1.17733333333333E+00   1.17733333333333E+00   0.00000000000000E+00   0.00000000000000E+00
      3.36595810788149E-04   1.33173293420438E-20   3.36595810788149E-04   2.02681308796741E-15   2.00000000000000E+00
      2.00000000000000E+00   0.00000000000000E+00   0.00000000000000E+00   0.00000000000000E+00   0.00000000000000E+00
      0.00000000000000E+00   1.21614024527072E-15
      4.17444444444445E-01
      0.00000000000000E+00   0.00000000000000E+00   0.00000000000000E+00   0.00000000000000E+00   5.31602610517495E-18
     -9.42926641293726E-16  -9.37610615188551E-16  -3.95448751750221E-15   0.00000000000000E+00   0.00000000000000E+00
      0.00000000000000E+00   0.00000000000000E+00  -3.43879016020534E-04  -2.47481295317204E-23  -3.43879016020534E-04
      6.63424098773039E-16   1.25233333333333E+00   1.25233333333333E+00   0.00000000000000E+00   0.00000000000000E+00
      3.43879016021472E-04   1.33238921845067E-20   3.43879016021472E-04   2.10532508458660E-15   2.00000000000000E+00
      2.00000000000000E+00   0.00000000000000E+00   0.00000000000000E+00   0.00000000000000E+00   0.00000000000000E+00
      0.00000000000000E+00   1.18573833414257E-15
      4.42444444444445E-01
      0.00000000000000E+00   0.00000000000000E+00   0.00000000000000E+00   0.00000000000000E+00   7.50403147621692E-19
     -9.67681502478415E-16  -9.66931099330794E-16  -4.00144224454829E-15   0.00000000000000E+00   0.00000000000000E+00
      0.00000000000000E+00   0.00000000000000E+00  -3.51088098794972E-04  -2.52685194263079E-23  -3.51088098794972E-04
      6.62600014595392E-16   1.32733333333333E+00   1.32733333333333E+00   0.00000000000000E+00   0.00000000000000E+00
      3.51088098795938E-04   1.33303548223560E-20   3.51088098795938E-04   2.18334604795514E-15   2.00000000000000E+00
      2.00000000000000E+00   0.00000000000000E+00   0.00000000000000E+00   0.00000000000000E+00   0.00000000000000E+00
      0.00000000000000E+00   1.15549618199776E-15
      4.67444444444445E-01
      0.00000000000000E+00   0.00000000000000E+00   0.00000000000000E+00   0.00000000000000E+00   9.58435353162401E-18
     -9.94945007786921E-16  -9.85360654255297E-16  -4.04801916490749E-15   0.00000000000000E+00   0.00000000000000E+00
      0.00000000000000E+00   0.00000000000000E+00  -3.58235521683135E-04  -2.57844611688314E-23  -3.58235521683135E-04
      6.61741452328866E-16   1.40233333333333E+00   1.40233333333333E+00   0.00000000000000E+00   0.00000000000000E+00
      3.58235521684120E-04   1.33367169766200E-20   3.58235521684120E-04   2.26091025514803E-15   2.00000000000000E+00
      2.00000000000000E+00   0.00000000000000E+00   0.00000000000000E+00   0.00000000000000E+00   0.00000000000000E+00
      0.00000000000000E+00   1.12536745743060E-15
      4.92444444444445E-01
      0.00000000000000E+00   0.00000000000000E+00   0.00000000000000E+00   0.00000000000000E+00   7.36524854240742E-18
     -1.02219650124897E-15  -1.01483125270656E-15  -4.09422082738120E-15   0.00000000000000E+00   0.00000000000000E+00
      0.00000000000000E+00   0.00000000000000E+00  -3.65328675150799E-04  -2.62972709607328E-23  -3.65328675150799E-04
      6.60847740858394E-16   1.47733333333333E+00   1.47733333333333E+00   0.00000000000000E+00   0.00000000000000E+00
      3.65328675151814E-04   1.33428771273454E-20   3.65328675151814E-04   2.33804273790772E-15   2.00000000000000E+00
      2.00000000000000E+00   0.00000000000000E+00   0.00000000000000E+00   0.00000000000000E+00   0.00000000000000E+00
      0.00000000000000E+00   1.09533034861509E-15
      5.17444444444445E-01
      0.00000000000000E+00   0.00000000000000E+00   0.00000000000000E+00   0.00000000000000E+00   7.03255997102603E-18
     -1.05010980999318E-15  -1.04307725002215E-15  -4.14007545091299E-15   0.00000000000000E+00   0.00000000000000E+00
      0.00000000000000E+00   0.00000000000000E+00  -3.72372030902843E-04  -2.68061250126539E-23  -3.72372030902843E-04
      6.59917755927763E-16   1.55233333333333E+00   1.55233333333333E+00   0.00000000000000E+00   0.00000000000000E+00
      3.72372030903885E-04   1.33486754108749E-20   3.72372030903885E-04   2.41477841385583E-15   2.00000000000000E+00
      2.00000000000000E+00   0.00000000000000E+00   0.00000000000000E+00   0.00000000000000E+00   0.00000000000000E+00
      0.00000000000000E+00   1.06537928112940E-15
      5.42444444444445E-01
      0.00000000000000E+00   0.00000000000000E+00   0.00000000000000E+00   0.00000000000000E+00   1.98913918585036E-18
     -1.08675658568360E-15  -1.08476744649774E-15  -4.18559908101212E-15   0.00000000000000E+00   0.00000000000000E+00
      0.00000000000000E+00   0.00000000000000E+00  -3.79371768457725E-04  -2.73117299072164E-23  -3.79371768457725E-04
      6.58949815609392E-16   1.62733333333333E+00   1.62733333333333E+00   0.00000000000000E+00   0.00000000000000E+00
      3.79371768458809E-04   1.33545072450645E-20   3.79371768458809E-04   2.49114427070639E-15   2.00000000000000E+00
      2.00000000000000E+00   0.00000000000000E+00   0.00000000000000E+00   0.00000000000000E+00   0.00000000000000E+00
      0.00000000000000E+00   1.03550499469634E-15
      5.67444444444445E-01
      0.00000000000000E+00   0.00000000000000E+00   0.00000000000000E+00   0.00000000000000E+00   6.80250968260398E-18
     -1.14923464141714E-15  -1.14243213173454E-15  -4.23080213201473E-15   0.00000000000000E+00   0.00000000000000E+00
      0.00000000000000E+00   0.00000000000000E+00  -3.86333408830183E-04  -2.78148732253816E-23  -3.86333408830183E-04
      6.57942310496862E-16   1.70233333333333E+00   1.70233333333333E+00   0.00000000000000E+00   0.00000000000000E+00
      3.86333408831325E-04   1.33603493887831E-20   3.86333408831325E-04   2.56715970164198E-15   2.00000000000000E+00
      2.00000000000000E+00   0.00000000000000E+00   0.00000000000000E+00   0.00000000000000E+00   0.00000000000000E+00
      0.00000000000000E+00   1.00570011987589E-15
      5.92444444444445E-01
      0.00000000000000E+00   0.00000000000000E+00   0.00000000000000E+00   0.00000000000000E+00   4.14453856905795E-18
     -1.24918967525338E-15  -1.24504513668432E-15  -4.27570614398158E-15   0.00000000000000E+00   0.00000000000000E+00
      0.00000000000000E+00   0.00000000000000E+00  -3.93257943034595E-04  -2.83155422655863E-23  -3.93257943034595E-04
      6.56894521330187E-16   1.77733333333333E+00   1.77733333333333E+00   0.00000000000000E+00   0.00000000000000E+00
      3.93257943035840E-04   1.33662002009627E-20   3.93257943035840E-04   2.64284679473013E-15   2.00000000000000E+00
      2.00000000000000E+00   0.00000000000000E+00   0.00000000000000E+00   0.00000000000000E+00   0.00000000000000E+00
      0.00000000000000E+00   9.75964827921258E-16
      6.17444444444445E-01
      0.00000000000000E+00   0.00000000000000E+00   0.00000000000000E+00   0.00000000000000E+00   4.02420457305275E-18
     -1.36408675702379E-15  -1.36006255245074E-15  -4.32033825931530E-15   0.00000000000000E+00   0.00000000000000E+00
      0.00000000000000E+00   0.00000000000000E+00  -4.00140902880154E-04  -2.88127612102709E-23  -4.00140902880154E-04
      6.55807070823830E-16   1.85233333333333E+00   1.85233333333333E+00   0.00000000000000E+00   0.00000000000000E+00
      4.00140902881513E-04   1.33720565331920E-20   4.00140902881513E-04   2.71822528907189E-15   2.00000000000000E+00
      2.00000000000000E+00   0.00000000000000E+00   0.00000000000000E+00   0.00000000000000E+00   0.00000000000000E+00
      0.00000000000000E+00   9.46305899419584E-16
      6.42444444444445E-01
      0.00000000000000E+00   0.00000000000000E+00   0.00000000000000E+00   0.00000000000000E+00   1.72870205310181E-13
     -1.45609749400714E-15   1.71414107816173E-13  -4.36469562946165E-15   0.00000000000000E+00   0.00000000000000E+00
      0.00000000000000E+00   0.00000000000000E+00  -4.06981651815797E-04  -2.93849155131520E-23  -4.06981651815797E-04
      6.54681135734249E-16   1.92733333333333E+00   1.92733333333333E+00   0.00000000000000E+00   0.00000000000000E+00
      4.06981651644383E-04   1.33625405834721E-20   4.06981651644383E-04   2.79329756703401E-15   2.00000000000000E+00
      2.00000000000000E+00   0.00000000000000E+00   0.00000000000000E+00   0.00000000000000E+00   0.00000000000000E+00
      0.00000000000000E+00   9.16716926693387E-16
      6.67444444444445E-01
      0.00000000000000E+00   0.00000000000000E+00   0.00000000000000E+00   0.00000000000000E+00   1.65669608693345E-13
     -1.51643519832490E-15   1.64153173495020E-13  -4.40880883832411E-15   0.00000000000000E+00   0.00000000000000E+00
      0.00000000000000E+00   0.00000000000000E+00  -4.13767414205754E-04  -2.98902842376978E-23  -4.13767414205754E-04
      6.53519447905273E-16   2.00233333333333E+00   2.00233333333333E+00   0.00000000000000E+00   0.00000000000000E+00
      4.13767414041601E-04   1.33834146839055E-20   4.13767414041601E-04   2.86807477537900E-15   2.00000000000000E+00
      2.00000000000000E+00   0.00000000000000E+00   0.00000000000000E+00   0.00000000000000E+00   0.00000000000000E+00
      0.00000000000000E+00   8.87214615039837E-16
      6.92444444444445E-01
      0.00000000000000E+00   0.00000000000000E+00   0.00000000000000E+00   0.00000000000000E+00   1.59206269980906E-13
     -1.55365733135714E-15   1.57652612649549E-13  -4.45266702386862E-15   0.00000000000000E+00   0.00000000000000E+00
      0.00000000000000E+00   0.00000000000000E+00  -4.20497499867527E-04  -3.03748227941497E-23  -4.20497499867527E-04
      6.52323790298117E-16   2.07733333333333E+00   2.07733333333333E+00   0.00000000000000E+00   0.00000000000000E+00
      4.20497499709874E-04   1.33896193760479E-20   4.20497499709874E-04   2.94254987895471E-15   2.00000000000000E+00
      2.00000000000000E+00   0.00000000000000E+00   0.00000000000000E+00   0.00000000000000E+00   0.00000000000000E+00
      0.00000000000000E+00   8.57793354615792E-16
      7.17444444444445E-01
      0.00000000000000E+00   0.00000000000000E+00   0.00000000000000E+00   0.00000000000000E+00   1.53367657177448E-13
     -1.57531870760024E-15   1.51792338469847E-13  -4.49627453324502E-15   0.00000000000000E+00   0.00000000000000E+00
      0.00000000000000E+00   0.00000000000000E+00  -4.27166530048751E-04  -3.08469785967029E-23  -4.27166530048751E-04
      6.51096140463107E-16   2.15233333333333E+00   2.15233333333333E+00   0.00000000000000E+00   0.00000000000000E+00
      4.27166529896959E-04   1.33954560412007E-20   4.27166529896959E-04   3.01671991533081E-15   2.00000000000000E+00
      2.00000000000000E+00   0.00000000000000E+00   0.00000000000000E+00   0.00000000000000E+00   0.00000000000000E+00
      0.00000000000000E+00   8.28458477451102E-16
      7.42444444444445E-01
      0.00000000000000E+00   0.00000000000000E+00   0.00000000000000E+00   0.00000000000000E+00  -2.46499581169510E-18
     -1.58811941639283E-15  -1.59058441220452E-15  -4.53962949947109E-15   0.00000000000000E+00   0.00000000000000E+00
      0.00000000000000E+00   0.00000000000000E+00  -4.33771901966630E-04  -3.12462219821457E-23  -4.33771901966630E-04
      6.49837948260641E-16   2.22733333333333E+00   2.22733333333333E+00   0.00000000000000E+00   0.00000000000000E+00
      4.33771901968221E-04   1.34012782243907E-20   4.33771901968221E-04   3.09057948989097E-15   2.00000000000000E+00
      2.00000000000000E+00   0.00000000000000E+00   0.00000000000000E+00   0.00000000000000E+00   0.00000000000000E+00
      0.00000000000000E+00   7.99212061319480E-16
      7.67444444444445E-01
      0.00000000000000E+00   0.00000000000000E+00   0.00000000000000E+00   0.00000000000000E+00   2.09177960067395E-18
     -1.59777570517859E-15  -1.59568392557792E-15  -4.58273586933610E-15   0.00000000000000E+00   0.00000000000000E+00
      0.00000000000000E+00   0.00000000000000E+00  -4.40310456806013E-04  -3.17197568797765E-23  -4.40310456806013E-04
      6.48550556780422E-16   2.30233333333333E+00   2.30233333333333E+00   0.00000000000000E+00   0.00000000000000E+00
      4.40310456807608E-04   1.34070775484866E-20   4.40310456807608E-04   3.16412610225898E-15   2.00000000000000E+00
      2.00000000000000E+00   0.00000000000000E+00   0.00000000000000E+00   0.00000000000000E+00   0.00000000000000E+00
      0.00000000000000E+00   7.70059210296698E-16
      7.92444444444445E-01
      0.00000000000000E+00   0.00000000000000E+00   0.00000000000000E+00   0.00000000000000E+00   6.56892204845744E-18
     -1.60866044463795E-15  -1.60209152258949E-15  -4.62558148621955E-15   0.00000000000000E+00   0.00000000000000E+00
      0.00000000000000E+00   0.00000000000000E+00  -4.46782262496325E-04  -3.21878577073685E-23  -4.46782262496325E-04
      6.47235130519752E-16   2.37733333333333E+00   2.37733333333333E+00   0.00000000000000E+00   0.00000000000000E+00
      4.46782262497927E-04   1.34128550178900E-20   4.46782262497927E-04   3.23734946385694E-15   2.00000000000000E+00
      2.00000000000000E+00   0.00000000000000E+00   0.00000000000000E+00   0.00000000000000E+00   0.00000000000000E+00
      0.00000000000000E+00   7.40996891842854E-16
      8.17444444444445E-01
      0.00000000000000E+00   0.00000000000000E+00   0.00000000000000E+00   0.00000000000000E+00  -6.63520409544659E-19
     -1.62355859848622E-15  -1.62422211889576E-15  -4.66816099166442E-15   0.00000000000000E+00   0.00000000000000E+00
      0.00000000000000E+00   0.00000000000000E+00  -4.53183853785113E-04  -3.26519130616557E-23  -4.53183853785113E-04
      6.45893584945210E-16   2.45233333333333E+00   2.45233333333333E+00   0.00000000000000E+00   0.00000000000000E+00
      4.53183853786738E-04   1.34186061278572E-20   4.53183853786738E-04   3.31024046590402E-15   2.00000000000000E+00
      2.00000000000000E+00   0.00000000000000E+00   0.00000000000000E+00   0.00000000000000E+00   0.00000000000000E+00
      0.00000000000000E+00   7.12026940815182E-16
      8.42444444444445E-01
      0.00000000000000E+00   0.00000000000000E+00   0.00000000000000E+00   0.00000000000000E+00   6.84409870917112E-18
     -1.64268301048740E-15  -1.63583891177823E-15  -4.71046854087446E-15   0.00000000000000E+00   0.00000000000000E+00
      0.00000000000000E+00   0.00000000000000E+00  -4.59508709747535E-04  -3.31098793933947E-23  -4.59508709747535E-04
      6.44528820301146E-16   2.52733333333333E+00   2.52733333333333E+00   0.00000000000000E+00   0.00000000000000E+00
      4.59508709749171E-04   1.34243247622022E-20   4.59508709749171E-04   3.38278668231590E-15   2.00000000000000E+00
      2.00000000000000E+00   0.00000000000000E+00   0.00000000000000E+00   0.00000000000000E+00   0.00000000000000E+00
      0.00000000000000E+00   6.83153038257415E-16
      8.67444444444445E-01
      0.00000000000000E+00   0.00000000000000E+00   0.00000000000000E+00   0.00000000000000E+00  -2.04736382888930E-18