DF-ISE text

Info {
  version   = 1.0
  type      = xyplot
  datasets  = [
    "time"
    "substrate OuterVoltage" "substrate InnerVoltage" "substrate QuasiFermiPotential" "substrate DisplacementCurrent" "substrate eCurrent"
    "substrate hCurrent" "substrate TotalCurrent" "substrate Charge" "source OuterVoltage" "source InnerVoltage"
    "source QuasiFermiPotential" "source DisplacementCurrent" "source eCurrent" "source hCurrent" "source TotalCurrent"
    "source Charge" "drain OuterVoltage" "drain InnerVoltage" "drain QuasiFermiPotential" "drain DisplacementCurrent"
    "drain eCurrent" "drain hCurrent" "drain TotalCurrent" "drain Charge" "gate OuterVoltage"
    "gate InnerVoltage" "gate QuasiFermiPotential" "gate DisplacementCurrent" "gate eCurrent" "gate hCurrent"
    "gate TotalCurrent" "gate Charge" ]
  functions = [
    Time
    OuterVoltage InnerVoltage QuasiFermiPotential DisplacementCurrent eCurrent
    hCurrent TotalCurrent Charge OuterVoltage InnerVoltage
    QuasiFermiPotential DisplacementCurrent eCurrent hCurrent TotalCurrent
    Charge OuterVoltage InnerVoltage QuasiFermiPotential DisplacementCurrent
    eCurrent hCurrent TotalCurrent Charge OuterVoltage
    InnerVoltage QuasiFermiPotential DisplacementCurrent eCurrent hCurrent
    TotalCurrent Charge ]
}

Data {
      0.00000000000000E+00
      0.00000000000000E+00   0.00000000000000E+00   0.00000000000000E+00   0.00000000000000E+00   5.79654903306021E-24
     -3.97540972127877E-26   5.75679493584743E-24  -5.38880595007756E-15   0.00000000000000E+00   0.00000000000000E+00
      0.00000000000000E+00   0.00000000000000E+00  -3.41669539104559E-24   3.00649384485103E-26  -3.38663045259708E-24
      2.59497108934516E-15   0.00000000000000E+00   0.00000000000000E+00   0.00000000000000E+00   0.00000000000000E+00
     -2.37985340332741E-24   9.68892007706954E-27  -2.37016448325034E-24   2.59497108934516E-15   0.00000000000000E+00
      0.00000000000000E+00   0.00000000000000E+00   0.00000000000000E+00   0.00000000000000E+00   0.00000000000000E+00
      0.00000000000000E+00   1.98863771387236E-16
      1.00000000000000E-02
      0.00000000000000E+00   0.00000000000000E+00   0.00000000000000E+00   0.00000000000000E+00  -3.80304638729564E-20
     -4.82937111285143E-16  -4.82975141749016E-16  -5.45447966454858E-15   0.00000000000000E+00   0.00000000000000E+00
      0.00000000000000E+00   0.00000000000000E+00  -8.35380853321786E-20  -2.52727736658285E-26  -8.35381106049523E-20
      2.59497108934473E-15   3.00000000000000E-02   3.00000000000000E-02   0.00000000000000E+00   0.00000000000000E+00
      4.83032417154878E-16   2.62627047430279E-20   4.83058679859621E-16   2.66777810662316E-15   0.00000000000000E+00
      0.00000000000000E+00   0.00000000000000E+00   0.00000000000000E+00   0.00000000000000E+00   0.00000000000000E+00
      0.00000000000000E+00   1.91730468580685E-16
      2.36666666666667E-02
      0.00000000000000E+00   0.00000000000000E+00   0.00000000000000E+00   0.00000000000000E+00  -1.04179996889954E-19
     -1.00351024456986E-15  -1.00361442456675E-15  -5.54345129916859E-15   0.00000000000000E+00   0.00000000000000E+00
      0.00000000000000E+00   0.00000000000000E+00  -1.11732331353171E-19  -3.27428857110612E-26  -1.11732364096057E-19
      2.59497108934426E-15   7.10000000000000E-02   7.10000000000000E-02   0.00000000000000E+00   0.00000000000000E+00
      1.00369324322902E-15   3.29137018296553E-20   1.00372615693085E-15   2.76651329842946E-15   0.00000000000000E+00
      0.00000000000000E+00   0.00000000000000E+00   0.00000000000000E+00   0.00000000000000E+00   0.00000000000000E+00
      0.00000000000000E+00   1.81966911394877E-16
      4.37111111111111E-02
      0.00000000000000E+00   0.00000000000000E+00   0.00000000000000E+00   0.00000000000000E+00  -5.66318648251823E-20
     -1.61818807346706E-15  -1.61824470533188E-15  -5.67246701164276E-15   0.00000000000000E+00   0.00000000000000E+00
      0.00000000000000E+00   0.00000000000000E+00  -1.15995809227667E-19  -2.50345848221239E-26  -1.15995834262252E-19
      2.59497108934371E-15   1.31133333333333E-01   1.31133333333333E-01   0.00000000000000E+00   0.00000000000000E+00
      1.61832560345016E-15   3.50977159866963E-20   1.61836070116615E-15   2.90985796932002E-15   0.00000000000000E+00
      0.00000000000000E+00   0.00000000000000E+00   0.00000000000000E+00   0.00000000000000E+00   0.00000000000000E+00
      0.00000000000000E+00   1.67637952979026E-16
      6.87111111111111E-02
      0.00000000000000E+00   0.00000000000000E+00   0.00000000000000E+00   0.00000000000000E+00  -5.53677733527285E-20
     -2.10456722007609E-15  -2.10462258784945E-15  -5.83110092350891E-15   0.00000000000000E+00   0.00000000000000E+00
      0.00000000000000E+00   0.00000000000000E+00  -1.15573612104889E-19   1.56753033764404E-26  -1.15573596429586E-19
      2.59497108934328E-15   2.06133333333333E-01   2.06133333333333E-01   0.00000000000000E+00   0.00000000000000E+00
      2.10470328936542E-15   3.48720804488026E-20   2.10473816144587E-15   3.08635592165084E-15   0.00000000000000E+00
      0.00000000000000E+00   0.00000000000000E+00   0.00000000000000E+00   0.00000000000000E+00   0.00000000000000E+00
      0.00000000000000E+00   1.49773912514785E-16
      9.37111111111111E-02
      0.00000000000000E+00   0.00000000000000E+00   0.00000000000000E+00   0.00000000000000E+00  -5.52974361566082E-20
     -2.33013639650401E-15  -2.33019169394017E-15  -5.98721658757212E-15   0.00000000000000E+00   0.00000000000000E+00
      0.00000000000000E+00   0.00000000000000E+00  -1.15514928915811E-19   2.77900718217999E-26  -1.15514901125739E-19
      2.59497108934307E-15   2.81133333333333E-01   2.81133333333333E-01   0.00000000000000E+00   0.00000000000000E+00
      2.33027218658200E-15   3.50222592896877E-20   2.33030720884129E-15   3.26032073047868E-15   0.00000000000000E+00
      0.00000000000000E+00   0.00000000000000E+00   0.00000000000000E+00   0.00000000000000E+00   0.00000000000000E+00
      0.00000000000000E+00   1.31924767750360E-16
      1.18711111111111E-01
      0.00000000000000E+00   0.00000000000000E+00   0.00000000000000E+00   0.00000000000000E+00  -5.53750477970095E-20
     -2.45175111089245E-15  -2.45180648594025E-15  -6.14055470809754E-15   0.00000000000000E+00   0.00000000000000E+00
      0.00000000000000E+00   0.00000000000000E+00  -1.15700163304166E-19   1.29204167785891E-26  -1.15700150383749E-19
      2.59497108934296E-15   3.56133333333333E-01   3.56133333333333E-01   0.00000000000000E+00   0.00000000000000E+00
      2.45188707544013E-15   3.51106504938141E-20   2.45192218609063E-15   3.43149490878413E-15   0.00000000000000E+00
      0.00000000000000E+00   0.00000000000000E+00   0.00000000000000E+00   0.00000000000000E+00   0.00000000000000E+00
      0.00000000000000E+00   1.14088709970445E-16
      1.43711111111111E-01
      0.00000000000000E+00   0.00000000000000E+00   0.00000000000000E+00   0.00000000000000E+00  -5.55115806419853E-20
     -2.54233234575039E-15  -2.54238785733103E-15  -6.29052737093222E-15   0.00000000000000E+00   0.00000000000000E+00
      0.00000000000000E+00   0.00000000000000E+00  -1.15998504458325E-19  -4.23095072539562E-26  -1.15998546767832E-19
      2.59497108934287E-15   4.31133333333333E-01   4.31133333333333E-01   0.00000000000000E+00   0.00000000000000E+00
      2.54246868187592E-15   3.51740018767016E-20   2.54250385587780E-15   3.59929269987117E-15   0.00000000000000E+00
      0.00000000000000E+00   0.00000000000000E+00   0.00000000000000E+00   0.00000000000000E+00   0.00000000000000E+00
      0.00000000000000E+00   9.62635817181848E-17
      1.68711111111111E-01
      0.00000000000000E+00   0.00000000000000E+00   0.00000000000000E+00   0.00000000000000E+00  -5.56181886498986E-20
     -2.61578711139989E-15  -2.61584272958854E-15  -6.43615424450285E-15   0.00000000000000E+00   0.00000000000000E+00
      0.00000000000000E+00   0.00000000000000E+00  -1.16339593157747E-19   1.33592478780259E-27  -1.16339591821822E-19
      2.59497108934280E-15   5.06133333333333E-01   5.06133333333333E-01   0.00000000000000E+00   0.00000000000000E+00
      2.61592386104877E-15   3.52081315869306E-20   2.61595906918036E-15   3.76273431808167E-15   0.00000000000000E+00
      0.00000000000000E+00   0.00000000000000E+00   0.00000000000000E+00   0.00000000000000E+00   0.00000000000000E+00
      0.00000000000000E+00   7.84488370783843E-17
      1.93711111111111E-01
      0.00000000000000E+00   0.00000000000000E+00   0.00000000000000E+00   0.00000000000000E+00  -5.57304128795333E-20
     -2.68126665932558E-15  -2.68132238973846E-15  -6.57608073886695E-15   0.00000000000000E+00   0.00000000000000E+00
      0.00000000000000E+00   0.00000000000000E+00  -1.16650420046820E-19   4.10991514653590E-26  -1.16650378947669E-19
      2.59497108934273E-15   5.81133333333333E-01   5.81133333333333E-01   0.00000000000000E+00   0.00000000000000E+00
      2.68140381680679E-15   3.52233106157880E-20   2.68143904011741E-15   3.92046435617663E-15   0.00000000000000E+00
      0.00000000000000E+00   0.00000000000000E+00   0.00000000000000E+00   0.00000000000000E+00   0.00000000000000E+00
      0.00000000000000E+00   6.06452933475806E-17
      2.18711111111111E-01
      0.00000000000000E+00   0.00000000000000E+00   0.00000000000000E+00   0.00000000000000E+00  -5.58477373094430E-20
     -2.74732425897703E-15  -2.74738010671434E-15  -6.70899695394457E-15   0.00000000000000E+00   0.00000000000000E+00
      0.00000000000000E+00   0.00000000000000E+00  -1.16932598068311E-19   3.87126627387413E-26  -1.16932559355649E-19
      2.59497108934267E-15   6.56133333333333E-01   6.56133333333333E-01   0.00000000000000E+00   0.00000000000000E+00
      2.74746180874152E-15   3.52305321804572E-20   2.74749703927370E-15   4.07117164017350E-15   0.00000000000000E+00
      0.00000000000000E+00   0.00000000000000E+00   0.00000000000000E+00   0.00000000000000E+00   0.00000000000000E+00
      0.00000000000000E+00   4.28542244284045E-17
      2.43711111111111E-01
      0.00000000000000E+00   0.00000000000000E+00   0.00000000000000E+00   0.00000000000000E+00  -5.59356406388552E-20
     -2.82945476939829E-15  -2.82951070503893E-15  -6.83471471164929E-15   0.00000000000000E+00   0.00000000000000E+00
      0.00000000000000E+00   0.00000000000000E+00  -1.17219121687716E-19  -2.36000682461300E-26  -1.17219145287784E-19
      2.59497108934258E-15   7.31133333333333E-01   7.31133333333333E-01   0.00000000000000E+00   0.00000000000000E+00
      2.82959268852185E-15   3.52356623691719E-20   2.82962792418421E-15   4.21466705603659E-15   0.00000000000000E+00
      0.00000000000000E+00   0.00000000000000E+00   0.00000000000000E+00   0.00000000000000E+00   0.00000000000000E+00
      0.00000000000000E+00   2.50765662701143E-17
      2.68711111111111E-01
      0.00000000000000E+00   0.00000000000000E+00   0.00000000000000E+00   0.00000000000000E+00  -5.60371091751983E-20
     -2.93304650423765E-15  -2.93310254134683E-15  -6.95479031975682E-15   0.00000000000000E+00   0.00000000000000E+00
      0.00000000000000E+00   0.00000000000000E+00  -1.17465143817103E-19  -1.46639663844525E-26  -1.17465158481070E-19
      2.59497108934248E-15   8.06133333333333E-01   8.06133333333333E-01   0.00000000000000E+00   0.00000000000000E+00
      2.93318476627188E-15   3.52402334278897E-20   2.93322000650531E-15   4.35250657800503E-15   0.00000000000000E+00
      0.00000000000000E+00   0.00000000000000E+00   0.00000000000000E+00   0.00000000000000E+00   0.00000000000000E+00
      0.00000000000000E+00   7.31265240930192E-18
      2.93711111111111E-01
      0.00000000000000E+00   0.00000000000000E+00   0.00000000000000E+00   0.00000000000000E+00  -5.61237046762917E-20
     -3.03133763771319E-15  -3.03139376141787E-15  -7.07140309788185E-15   0.00000000000000E+00   0.00000000000000E+00
      0.00000000000000E+00   0.00000000000000E+00  -1.17701315347023E-19   5.43366043924328E-26  -1.17701261010419E-19
      2.59497108934238E-15   8.81133333333333E-01   8.81133333333333E-01   0.00000000000000E+00   0.00000000000000E+00
      3.03147621805025E-15   3.52446286290058E-20   3.03151146267888E-15   4.48686964731020E-15   0.00000000000000E+00
      0.00000000000000E+00   0.00000000000000E+00   0.00000000000000E+00   0.00000000000000E+00   0.00000000000000E+00
      0.00000000000000E+00  -1.04376387707293E-17
      3.18711111111111E-01
      0.00000000000000E+00   0.00000000000000E+00   0.00000000000000E+00   0.00000000000000E+00  -5.62060589186779E-20
     -3.10131518824079E-15  -3.10137139429971E-15  -7.18609102475090E-15   0.00000000000000E+00   0.00000000000000E+00
      0.00000000000000E+00   0.00000000000000E+00  -1.17920825355789E-19  -1.75035205243349E-26  -1.17920842859309E-19
      2.59497108934231E-15   9.56133333333333E-01   9.56133333333333E-01   0.00000000000000E+00   0.00000000000000E+00
      3.10145406614559E-15   3.52489969825405E-20   3.10148931514257E-15   4.61929450479181E-15   0.00000000000000E+00
      0.00000000000000E+00   0.00000000000000E+00   0.00000000000000E+00   0.00000000000000E+00   0.00000000000000E+00
      0.00000000000000E+00  -2.81745693832347E-17
      3.43711111111111E-01
      0.00000000000000E+00   0.00000000000000E+00   0.00000000000000E+00   0.00000000000000E+00  -5.62763267925912E-20
     -3.15153434473983E-15  -3.15159062106662E-15  -7.29962807837410E-15   0.00000000000000E+00   0.00000000000000E+00
      0.00000000000000E+00   0.00000000000000E+00  -1.18135179179541E-19   2.60998470508557E-26  -1.18135153079694E-19
      2.59497108934226E-15   1.03113333333333E+00   1.03113333333333E+00   0.00000000000000E+00   0.00000000000000E+00
      3.15167350284697E-15   3.52533727329024E-20   3.15170875621970E-15   4.75055520336114E-15   0.00000000000000E+00
      0.00000000000000E+00   0.00000000000000E+00   0.00000000000000E+00   0.00000000000000E+00   0.00000000000000E+00
      0.00000000000000E+00  -4.58982143292991E-17
      3.68711111111111E-01
      0.00000000000000E+00   0.00000000000000E+00   0.00000000000000E+00   0.00000000000000E+00  -5.63447542154713E-20
     -3.20039877447093E-15  -3.20045511922515E-15  -7.41234391139953E-15   0.00000000000000E+00   0.00000000000000E+00
      0.00000000000000E+00   0.00000000000000E+00  -1.18336455965926E-19   1.51040418506238E-26  -1.18336440861884E-19
      2.59497108934221E-15   1.10613333333333E+00   1.10613333333333E+00   0.00000000000000E+00   0.00000000000000E+00
      3.20053819791490E-15   3.52577511018308E-20   3.20057345566601E-15   4.88098108364664E-15   0.00000000000000E+00
      0.00000000000000E+00   0.00000000000000E+00   0.00000000000000E+00   0.00000000000000E+00   0.00000000000000E+00
      0.00000000000000E+00  -6.36082615893328E-17
      3.93711111111111E-01
      0.00000000000000E+00   0.00000000000000E+00   0.00000000000000E+00   0.00000000000000E+00  -5.63982522741695E-20
     -3.25402496430463E-15  -3.25408136255690E-15  -7.52438489852928E-15   0.00000000000000E+00   0.00000000000000E+00
      0.00000000000000E+00   0.00000000000000E+00  -1.18543091921553E-19  -2.99819298523523E-26  -1.18543121903482E-19
      2.59497108934215E-15   1.18113333333333E+00   1.18113333333333E+00   0.00000000000000E+00   0.00000000000000E+00
      3.25416464356004E-15   3.52621187610710E-20   3.25419990567880E-15   5.01071786648636E-15   0.00000000000000E+00
      0.00000000000000E+00   0.00000000000000E+00   0.00000000000000E+00   0.00000000000000E+00   0.00000000000000E+00
      0.00000000000000E+00  -8.13040572992337E-17
      4.18711111111111E-01
      0.00000000000000E+00   0.00000000000000E+00   0.00000000000000E+00   0.00000000000000E+00  -5.64557326000783E-20
     -3.30728058305186E-15  -3.30733703878446E-15  -7.63585502645187E-15   0.00000000000000E+00   0.00000000000000E+00
      0.00000000000000E+00   0.00000000000000E+00  -1.18737472626476E-19   5.06938863287803E-26  -1.18737421932590E-19
      2.59497108934210E-15   1.25613333333333E+00   1.25613333333333E+00   0.00000000000000E+00   0.00000000000000E+00
      3.30742050974232E-15   3.52664640753655E-20   3.30745577620640E-15   5.13986876867706E-15   0.00000000000000E+00
      0.00000000000000E+00   0.00000000000000E+00   0.00000000000000E+00   0.00000000000000E+00   0.00000000000000E+00
      0.00000000000000E+00  -9.89848315672888E-17
      4.43711111111111E-01
      0.00000000000000E+00   0.00000000000000E+00   0.00000000000000E+00   0.00000000000000E+00  -5.65218135617824E-20
     -3.36308771759330E-15  -3.36314423940686E-15  -7.74684705467274E-15   0.00000000000000E+00   0.00000000000000E+00
      0.00000000000000E+00   0.00000000000000E+00  -1.18920374949720E-19   6.94247869864675E-26  -1.18920305524933E-19
      2.59497108934204E-15   1.33113333333333E+00   1.33113333333333E+00   0.00000000000000E+00   0.00000000000000E+00
      3.36322788893405E-15   3.52707783422001E-20   3.36326315971239E-15   5.26852586958115E-15   0.00000000000000E+00
      0.00000000000000E+00   0.00000000000000E+00   0.00000000000000E+00   0.00000000000000E+00   0.00000000000000E+00
      0.00000000000000E+00  -1.16649904250460E-16
      4.68711111111111E-01
      0.00000000000000E+00   0.00000000000000E+00   0.00000000000000E+00   0.00000000000000E+00  -5.65653329872943E-20
     -3.44527816791405E-15  -3.44533473324704E-15  -7.85742096322831E-15   0.00000000000000E+00   0.00000000000000E+00
      0.00000000000000E+00   0.00000000000000E+00  -1.19123509680613E-19  -4.52354297595660E-26  -1.19123554916043E-19
      2.59497108934197E-15   1.40613333333333E+00   1.40613333333333E+00   0.00000000000000E+00   0.00000000000000E+00
      3.44541858174657E-15   3.52750553776633E-20   3.44545385680195E-15   5.39674864001838E-15   0.00000000000000E+00
      0.00000000000000E+00   0.00000000000000E+00   0.00000000000000E+00   0.00000000000000E+00   0.00000000000000E+00
      0.00000000000000E+00  -1.34298766132041E-16
      4.93711111111111E-01
      0.00000000000000E+00   0.00000000000000E+00   0.00000000000000E+00   0.00000000000000E+00  -5.66277433012542E-20
     -3.60990424708033E-15  -3.60996087482363E-15  -7.96760008794880E-15   0.00000000000000E+00   0.00000000000000E+00
      0.00000000000000E+00   0.00000000000000E+00  -1.19308264620973E-19  -5.37958423926272E-26  -1.19308318416816E-19
      2.59497108934182E-15   1.48113333333333E+00   1.48113333333333E+00   0.00000000000000E+00   0.00000000000000E+00
      3.61004490385105E-15   3.52792910029763E-20   3.61008018314205E-15   5.52456007293783E-15   0.00000000000000E+00
      0.00000000000000E+00   0.00000000000000E+00   0.00000000000000E+00   0.00000000000000E+00   0.00000000000000E+00
      0.00000000000000E+00  -1.51931074330846E-16
      5.18711111111111E-01
      0.00000000000000E+00   0.00000000000000E+00   0.00000000000000E+00   0.00000000000000E+00  -5.66859776265459E-20
     -3.92776952280212E-15  -3.92782620877975E-15  -8.07739331976401E-15   0.00000000000000E+00   0.00000000000000E+00
      0.00000000000000E+00   0.00000000000000E+00  -1.19499833984329E-19  -6.63616935763643E-26  -1.19499900346023E-19
      2.59497108934153E-15   1.55613333333333E+00   1.55613333333333E+00   0.00000000000000E+00   0.00000000000000E+00
      3.92791042519746E-15   3.52834826275547E-20   3.92794570868009E-15   5.65196886057380E-15   0.00000000000000E+00
      0.00000000000000E+00   0.00000000000000E+00   0.00000000000000E+00   0.00000000000000E+00   0.00000000000000E+00
      0.00000000000000E+00  -1.69546630151314E-16
      5.43711111111111E-01
      0.00000000000000E+00   0.00000000000000E+00   0.00000000000000E+00   0.00000000000000E+00  -5.67342626680537E-20
     -4.37030500005655E-15  -4.37036173431922E-15  -8.18681504567866E-15   0.00000000000000E+00   0.00000000000000E+00
      0.00000000000000E+00   0.00000000000000E+00  -1.19705614831117E-19   5.73145786860025E-26  -1.19705557516538E-19
      2.59497108934114E-15   1.63113333333333E+00   1.63113333333333E+00   0.00000000000000E+00   0.00000000000000E+00
      4.37044615224742E-15   3.52876293085510E-20   4.37048143987673E-15   5.77898932877609E-15   0.00000000000000E+00
      0.00000000000000E+00   0.00000000000000E+00   0.00000000000000E+00   0.00000000000000E+00   0.00000000000000E+00
      0.00000000000000E+00  -1.87145372438579E-16
      5.68711111111111E-01
      0.00000000000000E+00   0.00000000000000E+00   0.00000000000000E+00   0.00000000000000E+00  -5.68076731501752E-20
     -4.76047247506058E-15  -4.76052928273373E-15  -8.29588490873161E-15   0.00000000000000E+00   0.00000000000000E+00
      0.00000000000000E+00   0.00000000000000E+00  -1.19890010239826E-19   5.19745756123824E-26  -1.19889958265250E-19
      2.59497108934079E-15   1.70613333333333E+00   1.70613333333333E+00   0.00000000000000E+00   0.00000000000000E+00
      4.76061388096177E-15   3.52917302325799E-20   4.76064917269200E-15   5.90564120672000E-15   0.00000000000000E+00
      0.00000000000000E+00   0.00000000000000E+00   0.00000000000000E+00   0.00000000000000E+00   0.00000000000000E+00
      0.00000000000000E+00  -2.04727387329176E-16
      5.93711111111111E-01
      0.00000000000000E+00   0.00000000000000E+00   0.00000000000000E+00   0.00000000000000E+00  -5.68748400039239E-20
     -4.99800855068878E-15  -4.99806542552878E-15  -8.40461622534544E-15   0.00000000000000E+00   0.00000000000000E+00
      0.00000000000000E+00   0.00000000000000E+00  -1.20082999090048E-19   3.69812640856043E-26  -1.20082962108784E-19
      2.59497108934058E-15   1.78113333333333E+00   1.78113333333333E+00   0.00000000000000E+00   0.00000000000000E+00
      4.99815021270528E-15   3.52957856156588E-20   4.99818550849089E-15   6.03193805539917E-15   0.00000000000000E+00
      0.00000000000000E+00   0.00000000000000E+00   0.00000000000000E+00   0.00000000000000E+00   0.00000000000000E+00
      0.00000000000000E+00  -2.22292919394305E-16
      6.18711111111111E-01
      0.00000000000000E+00   0.00000000000000E+00   0.00000000000000E+00   0.00000000000000E+00  -5.69324450427188E-20
     -5.12774130622777E-15  -5.12779823867281E-15  -8.51301118509082E-15   0.00000000000000E+00   0.00000000000000E+00
      0.00000000000000E+00   0.00000000000000E+00  -1.20287792331517E-19  -1.46988868367285E-26  -1.20287807030404E-19
      2.59497108934046E-15   1.85613333333333E+00   1.85613333333333E+00   0.00000000000000E+00   0.00000000000000E+00
      5.12788322668408E-15   3.52997957604938E-20   5.12791852647984E-15   6.15788246200570E-15   0.00000000000000E+00
      0.00000000000000E+00   0.00000000000000E+00   0.00000000000000E+00   0.00000000000000E+00   0.00000000000000E+00
      0.00000000000000E+00  -2.39842366255337E-16
      6.43711111111111E-01
      0.00000000000000E+00   0.00000000000000E+00   0.00000000000000E+00   0.00000000000000E+00  -5.70053318862598E-20
     -5.20472795093392E-15  -5.20478495626581E-15  -8.62106677907909E-15   0.00000000000000E+00   0.00000000000000E+00
      0.00000000000000E+00   0.00000000000000E+00  -1.20479212487330E-19   2.70160970981102E-26  -1.20479185471233E-19
      2.59497108934039E-15   1.93113333333333E+00   1.93113333333333E+00   0.00000000000000E+00   0.00000000000000E+00
      5.20487013169011E-15   3.53037611677147E-20   5.20490543545128E-15   6.28347193931464E-15   0.00000000000000E+00
      0.00000000000000E+00   0.00000000000000E+00   0.00000000000000E+00   0.00000000000000E+00   0.00000000000000E+00
      0.00000000000000E+00  -2.57376249575932E-16
      6.68711111111111E-01
      0.00000000000000E+00   0.00000000000000E+00   0.00000000000000E+00   0.00000000000000E+00  -5.70644523613884E-20
     -5.25542705252311E-15  -5.25548411697547E-15  -8.72878433505773E-15   0.00000000000000E+00   0.00000000000000E+00
      0.00000000000000E+00   0.00000000000000E+00  -1.20684691696406E-19   3.33288960504746E-26  -1.20684658367510E-19
      2.59497108934034E-15   2.00613333333333E+00   2.00613333333333E+00   0.00000000000000E+00   0.00000000000000E+00
      5.25556949395147E-15   3.53076823691884E-20   5.25560480163384E-15   6.40870842219989E-15   0.00000000000000E+00
      0.00000000000000E+00   0.00000000000000E+00   0.00000000000000E+00   0.00000000000000E+00   0.00000000000000E+00
      0.00000000000000E+00  -2.74895176482499E-16
      6.93711111111111E-01
      0.00000000000000E+00   0.00000000000000E+00   0.00000000000000E+00   0.00000000000000E+00  -5.71324419018572E-20
     -5.29640101698366E-15  -5.29645814942556E-15  -8.83617549570369E-15   0.00000000000000E+00   0.00000000000000E+00
      0.00000000000000E+00   0.00000000000000E+00  -1.20879300398453E-19   6.35607534754010E-26  -1.20879236837699E-19
      2.59497108934030E-15   2.08113333333333E+00   2.08113333333333E+00   0.00000000000000E+00   0.00000000000000E+00
      5.29654371710230E-15   3.53115601022718E-20   5.29657902866240E-15   6.53360422276268E-15   0.00000000000000E+00
      0.00000000000000E+00   0.00000000000000E+00   0.00000000000000E+00   0.00000000000000E+00   0.00000000000000E+00
      0.00000000000000E+00  -2.92399816399300E-16
      7.18711111111111E-01
      0.00000000000000E+00   0.00000000000000E+00   0.00000000000000E+00   0.00000000000000E+00  -5.72097111174728E-20
     -5.33859215791103E-15  -5.33864936762214E-15  -8.94326155483930E-15   0.00000000000000E+00   0.00000000000000E+00
      0.00000000000000E+00   0.00000000000000E+00  -1.21060395096363E-19  -9.83928008640898E-26  -1.21060493489164E-19
      2.59497108934026E-15   2.15613333333333E+00   2.15613333333333E+00   0.00000000000000E+00   0.00000000000000E+00
      5.33873511272003E-15   3.53153956010412E-20   5.33877042811563E-15   6.65818136474309E-15   0.00000000000000E+00
      0.00000000000000E+00   0.00000000000000E+00   0.00000000000000E+00   0.00000000000000E+00   0.00000000000000E+00
      0.00000000000000E+00  -3.09890899244044E-16
      7.43711111111111E-01
      0.00000000000000E+00   0.00000000000000E+00   0.00000000000000E+00   0.00000000000000E+00  -5.72647044580971E-20
     -5.38733635784054E-15  -5.38739362254500E-15  -9.05006750955923E-15   0.00000000000000E+00   0.00000000000000E+00
      0.00000000000000E+00   0.00000000000000E+00  -1.21252710272210E-19  -4.45101421966986E-27  -1.21252714723224E-19
      2.59497108933997E-15   2.23113333333333E+00   2.23113333333333E+00   0.00000000000000E+00   0.00000000000000E+00
      5.38747955698042E-15   3.53182792972663E-20   5.38751487525972E-15   6.78246563314589E-15   0.00000000000000E+00
      0.00000000000000E+00   0.00000000000000E+00   0.00000000000000E+00   0.00000000000000E+00   0.00000000000000E+00
      0.00000000000000E+00  -3.27369212926623E-16
      7.68711111111111E-01
      0.00000000000000E+00   0.00000000000000E+00   0.00000000000000E+00   0.00000000000000E+00  -5.73249599724342E-20
     -5.44091151212850E-15  -5.44096883708847E-15  -9.15661480306442E-15   0.00000000000000E+00   0.00000000000000E+00
      0.00000000000000E+00   0.00000000000000E+00  -1.21440216484128E-19   1.33768973799425E-26  -1.21440203107230E-19
      2.59497108934007E-15   2.30613333333333E+00   2.30613333333333E+00   0.00000000000000E+00   0.00000000000000E+00
      5.44105495443196E-15   3.53228596151264E-20   5.44109027729157E-15   6.90647929321791E-15   0.00000000000000E+00
      0.00000000000000E+00   0.00000000000000E+00   0.00000000000000E+00   0.00000000000000E+00   0.00000000000000E+00
      0.00000000000000E+00  -3.44835579493561E-16
      7.93711111111111E-01
      0.00000000000000E+00   0.00000000000000E+00   0.00000000000000E+00   0.00000000000000E+00  -5.73859865167676E-20
     -5.49005789526139E-15  -5.49011528124791E-15  -9.26291639092031E-15   0.00000000000000E+00   0.00000000000000E+00
      0.00000000000000E+00   0.00000000000000E+00  -1.21621489703241E-19   1.56966846484388E-26  -1.21621474006556E-19
      2.59497108933997E-15   2.38113333333333E+00   2.38113333333333E+00   0.00000000000000E+00   0.00000000000000E+00
      5.49020157851429E-15   3.53242076252304E-20   5.49023690272192E-15   7.03023611488809E-15   0.00000000000000E+00
      0.00000000000000E+00   0.00000000000000E+00   0.00000000000000E+00   0.00000000000000E+00   0.00000000000000E+00
      0.00000000000000E+00  -3.62290813307753E-16
      8.18711111111112E-01
      0.00000000000000E+00   0.00000000000000E+00   0.00000000000000E+00   0.00000000000000E+00  -5.74445705889820E-20
     -5.52692642317400E-15  -5.52698386774458E-15  -9.36897539981028E-15   0.00000000000000E+00   0.00000000000000E+00
      0.00000000000000E+00   0.00000000000000E+00  -1.21795854509443E-19  -5.28693101187715E-26  -1.21795907378754E-19
      2.59497108933982E-15   2.45613333333333E+00   2.45613333333333E+00   0.00000000000000E+00   0.00000000000000E+00
      5.52707038446576E-15   3.52791862080882E-20   5.52710566365197E-15   7.15373998879629E-15   0.00000000000000E+00
      0.00000000000000E+00   0.00000000000000E+00   0.00000000000000E+00   0.00000000000000E+00   0.00000000000000E+00
      0.00000000000000E+00  -3.79735678325848E-16
      8.43711111111112E-01
      0.00000000000000E+00   0.00000000000000E+00   0.00000000000000E+00   0.00000000000000E+00  -5.75034491032878E-20
     -5.55154952972628E-15  -5.55160703317538E-15  -9.47478634518368E-15   0.00000000000000E+00   0.00000000000000E+00
      0.00000000000000E+00   0.00000000000000E+00  -1.21964261272931E-19   3.41806922493188E-26  -1.21964227092239E-19
      2.59497108933967E-15   2.53113333333333E+00   2.53113333333333E+00   0.00000000000000E+00   0.00000000000000E+00
      5.55169388302756E-15   3.51143749218125E-20   5.55172899740248E-15   7.27698611327468E-15   0.00000000000000E+00
      0.00000000000000E+00   0.00000000000000E+00   0.00000000000000E+00   0.00000000000000E+00   0.00000000000000E+00
      0.00000000000000E+00  -3.97170857430670E-16
      8.68711111111112E-01
      0.00000000000000E+00   0.00000000000000E+00   0.00000000000000E+00   0.00000000000000E+00  -5.75517348438640E-20