DF-ISE text

Info {
  version   = 1.0
  type      = xyplot
  datasets  = [
    "time"
    "substrate OuterVoltage" "substrate InnerVoltage" "substrate QuasiFermiPotential" "substrate DisplacementCurrent" "substrate eCurrent"
    "substrate hCurrent" "substrate TotalCurrent" "substrate Charge" "source OuterVoltage" "source InnerVoltage"
    "source QuasiFermiPotential" "source DisplacementCurrent" "source eCurrent" "source hCurrent" "source TotalCurrent"
    "source Charge" "drain OuterVoltage" "drain InnerVoltage" "drain QuasiFermiPotential" "drain DisplacementCurrent"
    "drain eCurrent" "drain hCurrent" "drain TotalCurrent" "drain Charge" "gate OuterVoltage"
    "gate InnerVoltage" "gate QuasiFermiPotential" "gate DisplacementCurrent" "gate eCurrent" "gate hCurrent"
    "gate TotalCurrent" "gate Charge" ]
  functions = [
    Time
    OuterVoltage InnerVoltage QuasiFermiPotential DisplacementCurrent eCurrent
    hCurrent TotalCurrent Charge OuterVoltage InnerVoltage
    QuasiFermiPotential DisplacementCurrent eCurrent hCurrent TotalCurrent
    Charge OuterVoltage InnerVoltage QuasiFermiPotential DisplacementCurrent
    eCurrent hCurrent TotalCurrent Charge OuterVoltage
    InnerVoltage QuasiFermiPotential DisplacementCurrent eCurrent hCurrent
    TotalCurrent Charge ]
}

Data {
      0.00000000000000E+00
      0.00000000000000E+00   0.00000000000000E+00   0.00000000000000E+00   0.00000000000000E+00   3.85341848271890E-20
      7.92767645502727E-28   3.85341856199567E-20  -4.08765378086110E-15   0.00000000000000E+00   0.00000000000000E+00
      0.00000000000000E+00   0.00000000000000E+00  -3.86260331320067E-19  -2.15978948075836E-27  -3.86260333479856E-19
      1.56446654158306E-15   0.00000000000000E+00   0.00000000000000E+00   0.00000000000000E+00   0.00000000000000E+00
      3.47726146492855E-19   1.36704458724958E-27   3.47726147859899E-19   1.56446654158306E-15   1.00000000000000E+00
      1.00000000000000E+00   0.00000000000000E+00   0.00000000000000E+00   0.00000000000000E+00   0.00000000000000E+00
      0.00000000000000E+00   9.58720697694971E-16
      1.00000000000000E-02
      0.00000000000000E+00   0.00000000000000E+00   0.00000000000000E+00   0.00000000000000E+00   8.49672231379608E-17
     -2.77886551285622E-17   5.71785680093986E-17  -4.12227167558489E-15   0.00000000000000E+00   0.00000000000000E+00
      0.00000000000000E+00   0.00000000000000E+00  -5.77471787131746E-16   1.74479519268171E-27  -5.77471787130001E-16
      1.56446654157857E-15   3.00000000000000E-02   3.00000000000000E-02   0.00000000000000E+00   0.00000000000000E+00
      5.20268434611038E-16   2.47845095635603E-20   5.20293219120602E-16   1.60238578777570E-15   1.00000000000000E+00
      1.00000000000000E+00   0.00000000000000E+00   0.00000000000000E+00   0.00000000000000E+00   0.00000000000000E+00
      0.00000000000000E+00   9.55419346230616E-16
      2.33333333333333E-02
      0.00000000000000E+00   0.00000000000000E+00   0.00000000000000E+00   0.00000000000000E+00  -8.07577456694083E-19
     -5.61550386158678E-17  -5.69626160725618E-17  -4.16781648410844E-15   0.00000000000000E+00   0.00000000000000E+00
      0.00000000000000E+00   0.00000000000000E+00  -7.57785810203742E-16  -8.90262332488151E-28  -7.57785810204632E-16
      1.56446654157274E-15   7.00000000000000E-02   7.00000000000000E-02   0.00000000000000E+00   0.00000000000000E+00
      8.14716087795424E-16   3.23384817698243E-20   8.14748426277194E-16   1.65222975827133E-15   1.00000000000000E+00
      1.00000000000000E+00   0.00000000000000E+00   0.00000000000000E+00   0.00000000000000E+00   0.00000000000000E+00
      0.00000000000000E+00   9.51120184264369E-16
      4.24444444444445E-02
      0.00000000000000E+00   0.00000000000000E+00   0.00000000000000E+00   0.00000000000000E+00  -8.29816553922499E-17
     -9.78895784038459E-17  -1.80871233796096E-16  -4.23179201725713E-15   0.00000000000000E+00   0.00000000000000E+00
      0.00000000000000E+00   0.00000000000000E+00  -7.83560758160269E-16  -2.67107238501506E-27  -7.83560758162940E-16
      1.56446654156459E-15   1.27333333333333E-01   1.27333333333333E-01   0.00000000000000E+00   0.00000000000000E+00
      9.64398528044436E-16   3.34639146011423E-20   9.64431991959037E-16   1.72218598663936E-15   1.00000000000000E+00
      1.00000000000000E+00   0.00000000000000E+00   0.00000000000000E+00   0.00000000000000E+00   0.00000000000000E+00
      0.00000000000000E+00   9.45139489053174E-16
      6.74444444444444E-02
      0.00000000000000E+00   0.00000000000000E+00   0.00000000000000E+00   0.00000000000000E+00   2.15367412108121E-15
     -1.88856297070197E-16   1.96481782401101E-15  -4.31293255240366E-15   0.00000000000000E+00   0.00000000000000E+00
      0.00000000000000E+00   0.00000000000000E+00  -7.86873757108613E-16   1.05450639452525E-27  -7.86873757107558E-16
      1.56446654155415E-15   2.02333333333333E-01   2.02333333333333E-01   0.00000000000000E+00   0.00000000000000E+00
     -1.17795713936022E-15   1.30724567707018E-20  -1.17794406690345E-15   1.81090299229793E-15   1.00000000000000E+00
      1.00000000000000E+00   0.00000000000000E+00   0.00000000000000E+00   0.00000000000000E+00   0.00000000000000E+00
      0.00000000000000E+00   9.37563018551570E-16
      9.24444444444444E-02
      0.00000000000000E+00   0.00000000000000E+00   0.00000000000000E+00   0.00000000000000E+00  -4.99296458532058E-19
     -3.24812237604183E-16  -3.25311534062715E-16  -4.39109348851748E-15   0.00000000000000E+00   0.00000000000000E+00
      0.00000000000000E+00   0.00000000000000E+00  -7.90194366280903E-16   4.87304934014334E-27  -7.90194366276030E-16
      1.56446654154377E-15   2.77333333333333E-01   2.77333333333333E-01   0.00000000000000E+00   0.00000000000000E+00
      1.11546898179286E-15   3.69185458815655E-20   1.11550590033874E-15   1.89646598550540E-15   1.00000000000000E+00
      1.00000000000000E+00   0.00000000000000E+00   0.00000000000000E+00   0.00000000000000E+00   0.00000000000000E+00
      0.00000000000000E+00   9.30160961468313E-16
      1.17444444444444E-01
      0.00000000000000E+00   0.00000000000000E+00   0.00000000000000E+00   0.00000000000000E+00  -1.62681731370176E-19
     -4.34712224615029E-16  -4.34874906346400E-16  -4.46665590329952E-15   0.00000000000000E+00   0.00000000000000E+00
      0.00000000000000E+00   0.00000000000000E+00  -7.93872388002887E-16   1.25724452284442E-27  -7.93872388001629E-16
      1.56446654153332E-15   3.52333333333333E-01   3.52333333333333E-01   0.00000000000000E+00   0.00000000000000E+00
      1.22871477499482E-15   3.25193532090004E-20   1.22874729434803E-15   1.97933051557536E-15   1.00000000000000E+00
      1.00000000000000E+00   0.00000000000000E+00   0.00000000000000E+00   0.00000000000000E+00   0.00000000000000E+00
      0.00000000000000E+00   9.22858846190837E-16
      1.42444444444444E-01
      0.00000000000000E+00   0.00000000000000E+00   0.00000000000000E+00   0.00000000000000E+00   1.42714509480137E-19
     -4.92664159750421E-16  -4.92521445240941E-16  -4.54031340263702E-15   0.00000000000000E+00   0.00000000000000E+00
      0.00000000000000E+00   0.00000000000000E+00  -7.97414687098154E-16  -1.18351413755444E-27  -7.97414687099338E-16
      1.56446654152277E-15   4.27333333333333E-01   4.27333333333333E-01   0.00000000000000E+00   0.00000000000000E+00
      1.28990448274615E-15   3.16495941326871E-20   1.28993613234028E-15   2.06021838472100E-15   1.00000000000000E+00
      1.00000000000000E+00   0.00000000000000E+00   0.00000000000000E+00   0.00000000000000E+00   0.00000000000000E+00
      0.00000000000000E+00   9.15628476393239E-16
      1.67444444444444E-01
      0.00000000000000E+00   0.00000000000000E+00   0.00000000000000E+00   0.00000000000000E+00  -3.26802978290901E-19
     -5.31145321252069E-16  -5.31472124230360E-16  -4.61268834688504E-15   0.00000000000000E+00   0.00000000000000E+00
      0.00000000000000E+00   0.00000000000000E+00  -8.00111080581178E-16   2.82309580072323E-27  -8.00111080578355E-16
      1.56446654151211E-15   5.02333333333333E-01   5.02333333333333E-01   0.00000000000000E+00   0.00000000000000E+00
      1.33155254063468E-15   3.06641740324233E-20   1.33158320480871E-15   2.13975395978725E-15   1.00000000000000E+00
      1.00000000000000E+00   0.00000000000000E+00   0.00000000000000E+00   0.00000000000000E+00   0.00000000000000E+00
      0.00000000000000E+00   9.08467845585689E-16
      1.92444444444444E-01
      0.00000000000000E+00   0.00000000000000E+00   0.00000000000000E+00   0.00000000000000E+00  -4.28435607844326E-19
     -5.65704716348303E-16  -5.66133151956148E-16  -4.68417154032955E-15   0.00000000000000E+00   0.00000000000000E+00
      0.00000000000000E+00   0.00000000000000E+00  -8.03066658698973E-16  -1.09005692462424E-27  -8.03066658700063E-16
      1.56446654150135E-15   5.77333333333333E-01   5.77333333333333E-01   0.00000000000000E+00   0.00000000000000E+00
      1.36916624395228E-15   3.35667039265691E-20   1.36919981065621E-15   2.21831876736755E-15   1.00000000000000E+00
      1.00000000000000E+00   0.00000000000000E+00   0.00000000000000E+00   0.00000000000000E+00   0.00000000000000E+00
      0.00000000000000E+00   9.01386231460644E-16
      2.17444444444444E-01
      0.00000000000000E+00   0.00000000000000E+00   0.00000000000000E+00   0.00000000000000E+00   7.84777242136348E-21
     -5.99264454572076E-16  -5.99256606799654E-16  -4.75496291193413E-15   0.00000000000000E+00   0.00000000000000E+00
      0.00000000000000E+00   0.00000000000000E+00  -8.06454700676717E-16  -4.27499784591962E-27  -8.06454700680993E-16
      1.56446654149053E-15   6.52333333333333E-01   6.52333333333333E-01   0.00000000000000E+00   0.00000000000000E+00
      1.40571910519213E-15  -7.79771148501511E-21   1.40571130748065E-15   2.29610081034871E-15   1.00000000000000E+00
      1.00000000000000E+00   0.00000000000000E+00   0.00000000000000E+00   0.00000000000000E+00   0.00000000000000E+00
      0.00000000000000E+00   8.94395560094880E-16
      2.42444444444444E-01
      0.00000000000000E+00   0.00000000000000E+00   0.00000000000000E+00   0.00000000000000E+00  -1.42628590053674E-19
     -6.36464379822518E-16  -6.36607008412572E-16  -4.82515180009741E-15   0.00000000000000E+00   0.00000000000000E+00
      0.00000000000000E+00   0.00000000000000E+00  -8.09158002983934E-16   3.14375438980806E-28  -8.09158002983620E-16
      1.56446654147967E-15   7.27333333333333E-01   7.27333333333333E-01   0.00000000000000E+00   0.00000000000000E+00
      1.44572821694351E-15   3.67944526862436E-20   1.44576501139619E-15   2.37318272450030E-15   1.00000000000000E+00
      1.00000000000000E+00   0.00000000000000E+00   0.00000000000000E+00   0.00000000000000E+00   0.00000000000000E+00
      0.00000000000000E+00   8.87502534117441E-16
      2.67444444444444E-01
      0.00000000000000E+00   0.00000000000000E+00   0.00000000000000E+00   0.00000000000000E+00   2.42174300476329E-20
     -6.79130733320303E-16  -6.79106515890256E-16  -4.89477621881928E-15   0.00000000000000E+00   0.00000000000000E+00
      0.00000000000000E+00   0.00000000000000E+00  -8.12080254312162E-16   1.99126832572634E-27  -8.12080254310171E-16
      1.56446654146876E-15   8.02333333333333E-01   8.02333333333333E-01   0.00000000000000E+00   0.00000000000000E+00
      1.49113374525275E-15   5.30249476748063E-20   1.49118677020043E-15   2.44960893519795E-15   1.00000000000000E+00
      1.00000000000000E+00   0.00000000000000E+00   0.00000000000000E+00   0.00000000000000E+00   0.00000000000000E+00
      0.00000000000000E+00   8.80700742152563E-16
      2.92444444444444E-01
      0.00000000000000E+00   0.00000000000000E+00   0.00000000000000E+00   0.00000000000000E+00  -2.16785937712856E-19
     -7.31811300118488E-16  -7.32028086056201E-16  -4.96385466236397E-15   0.00000000000000E+00   0.00000000000000E+00
      0.00000000000000E+00   0.00000000000000E+00  -8.14519334045206E-16  -1.63241249014235E-27  -8.14519334046839E-16
      1.56446654145777E-15   8.77333333333333E-01   8.77333333333333E-01   0.00000000000000E+00   0.00000000000000E+00
      1.54650707884164E-15   4.03412614030431E-20   1.54654742010304E-15   2.52541916321311E-15   1.00000000000000E+00
      1.00000000000000E+00   0.00000000000000E+00   0.00000000000000E+00   0.00000000000000E+00   0.00000000000000E+00
      0.00000000000000E+00   8.73968957693090E-16
      3.17444444444444E-01
      0.00000000000000E+00   0.00000000000000E+00   0.00000000000000E+00   0.00000000000000E+00   3.89397309018229E-19
     -7.98399926454654E-16  -7.98010529145636E-16  -5.03239502889043E-15   0.00000000000000E+00   0.00000000000000E+00
      0.00000000000000E+00   0.00000000000000E+00  -8.17745408784875E-16  -3.28648729448982E-28  -8.17745408785204E-16
      1.56446654144663E-15   9.52333333333333E-01   9.52333333333333E-01   0.00000000000000E+00   0.00000000000000E+00
      1.61571875588617E-15   3.71820446661446E-20   1.61575593793084E-15   2.60064887424714E-15   1.00000000000000E+00
      1.00000000000000E+00   0.00000000000000E+00   0.00000000000000E+00   0.00000000000000E+00   0.00000000000000E+00
      0.00000000000000E+00   8.67279613196655E-16
      3.42444444444444E-01
      0.00000000000000E+00   0.00000000000000E+00   0.00000000000000E+00   0.00000000000000E+00  -5.05898403797028E-19
     -8.80089546013978E-16  -8.80595444417775E-16  -5.10039308431476E-15   0.00000000000000E+00   0.00000000000000E+00
      0.00000000000000E+00   0.00000000000000E+00  -8.19426080371269E-16   4.08892992555377E-27  -8.19426080367180E-16
      1.56446654143529E-15   1.02733333333333E+00   1.02733333333333E+00   0.00000000000000E+00   0.00000000000000E+00
      1.69998389964217E-15   3.76251427886071E-20   1.70002152478496E-15   2.67531712046015E-15   1.00000000000000E+00
      1.00000000000000E+00   0.00000000000000E+00   0.00000000000000E+00   0.00000000000000E+00   0.00000000000000E+00
      0.00000000000000E+00   8.60609422419318E-16
      3.67444444444445E-01
      0.00000000000000E+00   0.00000000000000E+00   0.00000000000000E+00   0.00000000000000E+00   2.31749909144113E-19
     -9.77285613918533E-16  -9.77053864009389E-16  -5.16782841638837E-15   0.00000000000000E+00   0.00000000000000E+00
      0.00000000000000E+00   0.00000000000000E+00  -8.22698812065017E-16   1.37977488693500E-27  -8.22698812063637E-16
      1.56446654142372E-15   1.10233333333333E+00   1.10233333333333E+00   0.00000000000000E+00   0.00000000000000E+00
      1.79971345480579E-15   3.92212672316101E-20   1.79975267607303E-15   2.74941839317699E-15   1.00000000000000E+00
      1.00000000000000E+00   0.00000000000000E+00   0.00000000000000E+00   0.00000000000000E+00   0.00000000000000E+00
      0.00000000000000E+00   8.53943481787665E-16
      3.92444444444445E-01
      0.00000000000000E+00   0.00000000000000E+00   0.00000000000000E+00   0.00000000000000E+00   6.48708216814139E-19
     -1.09037339684428E-15  -1.08972468862746E-15  -5.23465660957721E-15   0.00000000000000E+00   0.00000000000000E+00
      0.00000000000000E+00   0.00000000000000E+00  -8.24682513232857E-16  -4.24175095656612E-28  -8.24682513233281E-16
      1.56446654141188E-15   1.17733333333333E+00   1.17733333333333E+00   0.00000000000000E+00   0.00000000000000E+00
      1.91435900823809E-15   4.81936226563471E-20   1.91440720186075E-15   2.82291621942389E-15   1.00000000000000E+00
      1.00000000000000E+00   0.00000000000000E+00   0.00000000000000E+00   0.00000000000000E+00   0.00000000000000E+00
      0.00000000000000E+00   8.47273848741432E-16
      4.17444444444445E-01
      0.00000000000000E+00   0.00000000000000E+00   0.00000000000000E+00   0.00000000000000E+00  -2.45966595438547E-19
     -1.22399696595205E-15  -1.22424293254749E-15  -5.30079841229074E-15   0.00000000000000E+00   0.00000000000000E+00
      0.00000000000000E+00   0.00000000000000E+00  -8.27222605868397E-16  -1.91407194780463E-27  -8.27222605870311E-16
      1.56446654139979E-15   1.25233333333333E+00   1.25233333333333E+00   0.00000000000000E+00   0.00000000000000E+00
      2.04979562103501E-15   1.66991738279534E-18   2.05146553841780E-15   2.89573504716130E-15   1.00000000000000E+00
      1.00000000000000E+00   0.00000000000000E+00   0.00000000000000E+00   0.00000000000000E+00   0.00000000000000E+00
      0.00000000000000E+00   8.40596823729642E-16
      4.42444444444445E-01
      0.00000000000000E+00   0.00000000000000E+00   0.00000000000000E+00   0.00000000000000E+00   2.93538423782636E-19
     -1.36939149857044E-15  -1.36909796014666E-15  -5.36613081932482E-15   0.00000000000000E+00   0.00000000000000E+00
      0.00000000000000E+00   0.00000000000000E+00  -8.30004401528751E-16   8.89207784951188E-29  -8.30004401528662E-16
      1.56446654138742E-15   1.32733333333333E+00   1.32733333333333E+00   0.00000000000000E+00   0.00000000000000E+00
      2.19897240632746E-15   1.29955347859405E-19   2.19910236167532E-15   2.96775336305877E-15   1.00000000000000E+00
      1.00000000000000E+00   0.00000000000000E+00   0.00000000000000E+00   0.00000000000000E+00   0.00000000000000E+00
      0.00000000000000E+00   8.33910914878629E-16
      4.67444444444445E-01
      0.00000000000000E+00   0.00000000000000E+00   0.00000000000000E+00   0.00000000000000E+00  -6.49107065660148E-20
     -1.50508429424856E-15  -1.50514920495512E-15  -5.43048539878804E-15   0.00000000000000E+00   0.00000000000000E+00
      0.00000000000000E+00   0.00000000000000E+00  -8.32262425228416E-16  -1.06866991051640E-27  -8.32262425229485E-16
      1.56446654137479E-15   1.40233333333333E+00   1.40233333333333E+00   0.00000000000000E+00   0.00000000000000E+00
      2.33736322623267E-15   4.84039519391612E-20   2.33741163018461E-15   3.03880318407601E-15   1.00000000000000E+00
      1.00000000000000E+00   0.00000000000000E+00   0.00000000000000E+00   0.00000000000000E+00   0.00000000000000E+00
      0.00000000000000E+00   8.27215673337224E-16
      4.92444444444445E-01
      0.00000000000000E+00   0.00000000000000E+00   0.00000000000000E+00   0.00000000000000E+00   3.10692964395829E-19
     -1.60174465625050E-15  -1.60143396328610E-15  -5.49366278909734E-15   0.00000000000000E+00   0.00000000000000E+00
      0.00000000000000E+00   0.00000000000000E+00  -8.35077900171993E-16  -8.52200720693559E-28  -8.35077900172845E-16
      1.56446654136191E-15   1.47733333333333E+00   1.47733333333333E+00   0.00000000000000E+00   0.00000000000000E+00
      2.43628573867745E-15   2.26124781504030E-19   2.43651186345895E-15   3.10868514099200E-15   1.00000000000000E+00
      1.00000000000000E+00   0.00000000000000E+00   0.00000000000000E+00   0.00000000000000E+00   0.00000000000000E+00
      0.00000000000000E+00   8.20511106743423E-16
      5.17444444444445E-01
      0.00000000000000E+00   0.00000000000000E+00   0.00000000000000E+00   0.00000000000000E+00  -2.73370807717250E-20
     -1.65863088369340E-15  -1.65865822077417E-15  -5.55547830783780E-15   0.00000000000000E+00   0.00000000000000E+00
      0.00000000000000E+00   0.00000000000000E+00  -8.37123541040344E-16   2.25746168816138E-27  -8.37123541038087E-16
      1.56446654134878E-15   1.55233333333333E+00   1.55233333333333E+00   0.00000000000000E+00   0.00000000000000E+00
      2.49572140804709E-15   6.03537651738773E-20   2.49578176181226E-15   3.17721435872452E-15   1.00000000000000E+00
      1.00000000000000E+00   0.00000000000000E+00   0.00000000000000E+00   0.00000000000000E+00   0.00000000000000E+00
      0.00000000000000E+00   8.13797407764501E-16
      5.42444444444445E-01
      0.00000000000000E+00   0.00000000000000E+00   0.00000000000000E+00   0.00000000000000E+00  -1.93672335714661E-19
     -1.69310657997121E-15  -1.69330025230693E-15  -5.61584277032791E-15   0.00000000000000E+00   0.00000000000000E+00
      0.00000000000000E+00   0.00000000000000E+00  -8.39322563874158E-16  -2.55274031404433E-27  -8.39322563876711E-16
      1.56446654133539E-15   1.62733333333333E+00   1.62733333333333E+00   0.00000000000000E+00   0.00000000000000E+00
      2.53258602909387E-15   3.67870897719819E-20   2.53262281618364E-15   3.24430138947893E-15   1.00000000000000E+00
      1.00000000000000E+00   0.00000000000000E+00   0.00000000000000E+00   0.00000000000000E+00   0.00000000000000E+00
      0.00000000000000E+00   8.07074839513597E-16
      5.67444444444445E-01
      0.00000000000000E+00   0.00000000000000E+00   0.00000000000000E+00   0.00000000000000E+00  -5.32910695589561E-19
     -1.71844593707801E-15  -1.71897884777360E-15  -5.67483536489470E-15   0.00000000000000E+00   0.00000000000000E+00
      0.00000000000000E+00   0.00000000000000E+00  -8.41322500548993E-16  -2.70072117282320E-28  -8.41322500549263E-16
      1.56446654132173E-15   1.70233333333333E+00   1.70233333333333E+00   0.00000000000000E+00   0.00000000000000E+00
      2.56027475027289E-15   2.65980499795603E-20   2.56030134832286E-15   3.31002512976583E-15   1.00000000000000E+00
      1.00000000000000E+00   0.00000000000000E+00   0.00000000000000E+00   0.00000000000000E+00   0.00000000000000E+00
      0.00000000000000E+00   8.00343693807143E-16
      5.92444444444445E-01
      0.00000000000000E+00   0.00000000000000E+00   0.00000000000000E+00   0.00000000000000E+00  -2.14469292481712E-19
     -1.74032488564297E-15  -1.74053935493545E-15  -5.73269166150402E-15   0.00000000000000E+00   0.00000000000000E+00
      0.00000000000000E+00   0.00000000000000E+00  -8.43957893165378E-16  -2.64857761421393E-27  -8.43957893168026E-16
      1.56446654130779E-15   1.77733333333333E+00   1.77733333333333E+00   0.00000000000000E+00   0.00000000000000E+00
      2.58392861912999E-15   5.68628973490931E-19   2.58449724810348E-15   3.37462084134209E-15   1.00000000000000E+00
      1.00000000000000E+00   0.00000000000000E+00   0.00000000000000E+00   0.00000000000000E+00   0.00000000000000E+00
      0.00000000000000E+00   7.93604278854149E-16
      6.17444444444445E-01
      0.00000000000000E+00   0.00000000000000E+00   0.00000000000000E+00   0.00000000000000E+00   2.37000890744820E-19
     -1.75774995820309E-15  -1.75751295731235E-15  -5.78970186409916E-15   0.00000000000000E+00   0.00000000000000E+00
      0.00000000000000E+00   0.00000000000000E+00  -8.46705037151592E-16  -2.24176512393028E-27  -8.46705037153834E-16
      1.56446654129357E-15   1.85233333333333E+00   1.85233333333333E+00   0.00000000000000E+00   0.00000000000000E+00
      2.60382181768986E-15   3.96176776319620E-19   2.60421799446618E-15   3.43837840838218E-15   1.00000000000000E+00
      1.00000000000000E+00   0.00000000000000E+00   0.00000000000000E+00   0.00000000000000E+00   0.00000000000000E+00
      0.00000000000000E+00   7.86856914423406E-16
      6.42444444444445E-01
      0.00000000000000E+00   0.00000000000000E+00   0.00000000000000E+00   0.00000000000000E+00  -1.86340051448498E-19
     -1.77152822084115E-15  -1.77171456089260E-15  -5.84611171360070E-15   0.00000000000000E+00   0.00000000000000E+00
      0.00000000000000E+00   0.00000000000000E+00  -8.48556442691598E-16   9.73498358905551E-28  -8.48556442690625E-16
      1.56446654127908E-15   1.92733333333333E+00   1.92733333333333E+00   0.00000000000000E+00   0.00000000000000E+00
      2.62021125558946E-15   5.97479937703165E-20   2.62027100358323E-15   3.50154324693528E-15   1.00000000000000E+00
      1.00000000000000E+00   0.00000000000000E+00   0.00000000000000E+00   0.00000000000000E+00   0.00000000000000E+00
      0.00000000000000E+00   7.80101925386342E-16
      6.67444444444445E-01
      0.00000000000000E+00   0.00000000000000E+00   0.00000000000000E+00   0.00000000000000E+00  -4.19570232015183E-19
     -1.78360914218908E-15  -1.78402871242110E-15  -5.90208891320438E-15   0.00000000000000E+00   0.00000000000000E+00
      0.00000000000000E+00   0.00000000000000E+00  -8.50577704949203E-16   4.34805412312981E-27  -8.50577704944855E-16
      1.56446654126431E-15   2.00233333333333E+00   2.00233333333333E+00   0.00000000000000E+00   0.00000000000000E+00
      2.63452451735628E-15   8.19000096754693E-20   2.63460641736595E-15   3.56428274047260E-15   1.00000000000000E+00
      1.00000000000000E+00   0.00000000000000E+00   0.00000000000000E+00   0.00000000000000E+00   0.00000000000000E+00
      0.00000000000000E+00   7.73339631467495E-16
      6.92444444444445E-01
      0.00000000000000E+00   0.00000000000000E+00   0.00000000000000E+00   0.00000000000000E+00   2.33116376842364E-19
     -1.79496278261797E-15  -1.79472966624113E-15  -5.95773673633944E-15   0.00000000000000E+00   0.00000000000000E+00
      0.00000000000000E+00   0.00000000000000E+00  -8.53465228511038E-16   1.80691027197630E-27  -8.53465228509231E-16
      1.56446654124924E-15   2.07733333333333E+00   2.07733333333333E+00   0.00000000000000E+00   0.00000000000000E+00
      2.64814313192372E-15   5.17628266457411E-20   2.64819489475036E-15   3.62669986267172E-15   1.00000000000000E+00
      1.00000000000000E+00   0.00000000000000E+00   0.00000000000000E+00   0.00000000000000E+00   0.00000000000000E+00
      0.00000000000000E+00   7.66570332418494E-16
      7.17444444444445E-01
      0.00000000000000E+00   0.00000000000000E+00   0.00000000000000E+00   0.00000000000000E+00  -3.58835451600189E-19
     -1.80636908731881E-15  -1.80672792277041E-15  -6.01311759696728E-15   0.00000000000000E+00   0.00000000000000E+00
      0.00000000000000E+00   0.00000000000000E+00  -8.55089053951438E-16  -9.31670116047114E-28  -8.55089053952370E-16
      1.56446654123363E-15   2.15233333333333E+00   2.15233333333333E+00   0.00000000000000E+00   0.00000000000000E+00
      2.66178016607036E-15   3.68106524205110E-20   2.66181697672278E-15   3.68885676768363E-15   1.00000000000000E+00
      1.00000000000000E+00   0.00000000000000E+00   0.00000000000000E+00   0.00000000000000E+00   0.00000000000000E+00
      0.00000000000000E+00   7.59794288050043E-16
      7.42444444444445E-01
      0.00000000000000E+00   0.00000000000000E+00   0.00000000000000E+00   0.00000000000000E+00  -4.67954689528053E-19
     -1.81823904292081E-15  -1.81870699761034E-15  -6.06826988463627E-15   0.00000000000000E+00   0.00000000000000E+00
      0.00000000000000E+00   0.00000000000000E+00  -8.57177283205956E-16  -1.76353644586512E-27  -8.57177283207720E-16
      1.56446654121814E-15   2.22733333333333E+00   2.22733333333333E+00   0.00000000000000E+00   0.00000000000000E+00
      2.67580091840097E-15   8.33624170954083E-20   2.67588428081806E-15   3.75079164762935E-15   1.00000000000000E+00
      1.00000000000000E+00   0.00000000000000E+00   0.00000000000000E+00   0.00000000000000E+00   0.00000000000000E+00
      0.00000000000000E+00   7.53011695788795E-16
      7.67444444444445E-01
      0.00000000000000E+00   0.00000000000000E+00   0.00000000000000E+00   0.00000000000000E+00  -2.26845853355033E-19
     -1.83072786981581E-15  -1.83095471566916E-15  -6.12321716469927E-15   0.00000000000000E+00   0.00000000000000E+00
      0.00000000000000E+00   0.00000000000000E+00  -8.59598363228967E-16  -7.63802645520078E-28  -8.59598363229730E-16
      1.56446654120237E-15   2.30233333333333E+00   2.30233333333333E+00   0.00000000000000E+00   0.00000000000000E+00
      2.69054944251123E-15   3.63638766237149E-21   2.69055307889890E-15   3.81252795040216E-15   1.00000000000000E+00
      1.00000000000000E+00   0.00000000000000E+00   0.00000000000000E+00   0.00000000000000E+00   0.00000000000000E+00
      0.00000000000000E+00   7.46222673094756E-16
      7.92444444444445E-01
      0.00000000000000E+00   0.00000000000000E+00   0.00000000000000E+00   0.00000000000000E+00   2.52569777428969E-19
     -1.84204896210358E-15  -1.84179639232615E-15  -6.17797298604683E-15   0.00000000000000E+00   0.00000000000000E+00
      0.00000000000000E+00   0.00000000000000E+00  -8.62240535003195E-16  -1.23779399083689E-27  -8.62240535004433E-16
      1.56446654118620E-15   2.37733333333333E+00   2.37733333333333E+00   0.00000000000000E+00   0.00000000000000E+00
      2.70600593106705E-15  -1.96900373646503E-18   2.70403692733059E-15   3.87407919125341E-15   1.00000000000000E+00
      1.00000000000000E+00   0.00000000000000E+00   0.00000000000000E+00   0.00000000000000E+00   0.00000000000000E+00
      0.00000000000000E+00   7.39427253607228E-16
      8.17444444444445E-01
      0.00000000000000E+00   0.00000000000000E+00   0.00000000000000E+00   0.00000000000000E+00  -6.28974200951253E-20
     -1.85783171618974E-15  -1.85789461360983E-15  -6.23254382999442E-15   0.00000000000000E+00   0.00000000000000E+00
      0.00000000000000E+00   0.00000000000000E+00  -8.64070704753547E-16   4.01184890008602E-28  -8.64070704753146E-16
      1.56446654116949E-15   2.45233333333333E+00   2.45233333333333E+00   0.00000000000000E+00   0.00000000000000E+00
      2.72148673493270E-15   4.78583430281151E-19   2.72196531836298E-15   3.93545188692155E-15   1.00000000000000E+00
      1.00000000000000E+00   0.00000000000000E+00   0.00000000000000E+00   0.00000000000000E+00   0.00000000000000E+00
      0.00000000000000E+00   7.32625401903390E-16
      8.42444444444445E-01
      0.00000000000000E+00   0.00000000000000E+00   0.00000000000000E+00   0.00000000000000E+00   6.62218436315488E-20
     -1.86904859975167E-15  -1.86898237790804E-15  -6.28693152348517E-15   0.00000000000000E+00   0.00000000000000E+00
      0.00000000000000E+00   0.00000000000000E+00  -8.66333181523543E-16  -4.52231954209598E-27  -8.66333181528065E-16
      1.56446654115290E-15   2.52733333333333E+00   2.52733333333333E+00   0.00000000000000E+00   0.00000000000000E+00
      2.73624843258218E-15  -9.32873146067819E-19   2.73531555943611E-15   3.99664793796973E-15   1.00000000000000E+00
      1.00000000000000E+00   0.00000000000000E+00   0.00000000000000E+00   0.00000000000000E+00   0.00000000000000E+00
      0.00000000000000E+00   7.25817044362547E-16
      8.67444444444445E-01
      0.00000000000000E+00   0.00000000000000E+00   0.00000000000000E+00   0.00000000000000E+00  -3.64265693746668E-19