DF-ISE text

Info {
  version   = 1.0
  type      = xyplot
  datasets  = [
    "time"
    "substrate OuterVoltage" "substrate InnerVoltage" "substrate QuasiFermiPotential" "substrate DisplacementCurrent" "substrate eCurrent"
    "substrate hCurrent" "substrate TotalCurrent" "substrate Charge" "source OuterVoltage" "source InnerVoltage"
    "source QuasiFermiPotential" "source DisplacementCurrent" "source eCurrent" "source hCurrent" "source TotalCurrent"
    "source Charge" "drain OuterVoltage" "drain InnerVoltage" "drain QuasiFermiPotential" "drain DisplacementCurrent"
    "drain eCurrent" "drain hCurrent" "drain TotalCurrent" "drain Charge" "gate OuterVoltage"
    "gate InnerVoltage" "gate QuasiFermiPotential" "gate DisplacementCurrent" "gate eCurrent" "gate hCurrent"
    "gate TotalCurrent" "gate Charge" ]
  functions = [
    Time
    OuterVoltage InnerVoltage QuasiFermiPotential DisplacementCurrent eCurrent
    hCurrent TotalCurrent Charge OuterVoltage InnerVoltage
    QuasiFermiPotential DisplacementCurrent eCurrent hCurrent TotalCurrent
    Charge OuterVoltage InnerVoltage QuasiFermiPotential DisplacementCurrent
    eCurrent hCurrent TotalCurrent Charge OuterVoltage
    InnerVoltage QuasiFermiPotential DisplacementCurrent eCurrent hCurrent
    TotalCurrent Charge ]
}

Data {
      0.00000000000000E+00
      0.00000000000000E+00   0.00000000000000E+00   0.00000000000000E+00   0.00000000000000E+00   1.19178875448300E-22
     -1.14629557048487E-23   1.07715919743451E-22  -3.48450503955405E-15   0.00000000000000E+00   0.00000000000000E+00
      0.00000000000000E+00   0.00000000000000E+00  -5.92844854141585E-23   6.09370875082627E-24  -5.31907766633322E-23
      1.63581791852509E-15   0.00000000000000E+00   0.00000000000000E+00   0.00000000000000E+00   0.00000000000000E+00
     -5.98943899018442E-23   5.36924682172525E-24  -5.45251430801189E-23   1.63581791852509E-15   0.00000000000000E+00
      0.00000000000000E+00   0.00000000000000E+00   0.00000000000000E+00   0.00000000000000E+00   0.00000000000000E+00
      0.00000000000000E+00   2.12869202503874E-16
      0.00000000000000E+00
      0.00000000000000E+00   0.00000000000000E+00   0.00000000000000E+00   0.00000000000000E+00  -5.55236115838198E-22
      3.66670549085219E-25  -5.54869445289113E-22  -3.48450503954868E-15   0.00000000000000E+00   0.00000000000000E+00
      0.00000000000000E+00   0.00000000000000E+00   2.79404552140174E-22  -7.21205556918698E-26   2.79332431584482E-22
      1.63581791852240E-15   0.00000000000000E+00   0.00000000000000E+00   0.00000000000000E+00   0.00000000000000E+00
      2.75831563571411E-22  -2.94549866776616E-25   2.75537013704635E-22   1.63581791852240E-15   0.00000000000000E+00
      0.00000000000000E+00   0.00000000000000E+00   0.00000000000000E+00   0.00000000000000E+00   0.00000000000000E+00
      0.00000000000000E+00   2.12869202503872E-16
      1.00000000000000E-01
      0.00000000000000E+00   0.00000000000000E+00   0.00000000000000E+00   0.00000000000000E+00   1.60752226354880E-21
     -8.57571791775349E-26   1.60743650636963E-21  -3.66636233599678E-15   0.00000000000000E+00   0.00000000000000E+00
      0.00000000000000E+00   0.00000000000000E+00  -5.82017731763396E-22   1.06465245021983E-26  -5.82007085238894E-22
      1.60893534553176E-15   0.00000000000000E+00   0.00000000000000E+00   0.00000000000000E+00   0.00000000000000E+00
     -1.02550453923383E-21   7.51181030949396E-26  -1.02542942113073E-21   1.60893534553176E-15   3.00000000000000E-01
      3.00000000000000E-01   0.00000000000000E+00   0.00000000000000E+00   0.00000000000000E+00   0.00000000000000E+00
      0.00000000000000E+00   4.48491644933251E-16
      2.00000000000000E-01
      0.00000000000000E+00   0.00000000000000E+00   0.00000000000000E+00   0.00000000000000E+00  -7.99463754266057E-21
     -6.99835643021370E-26  -7.99470752622487E-21  -3.83179541837597E-15   0.00000000000000E+00   0.00000000000000E+00
      0.00000000000000E+00   0.00000000000000E+00   2.01073523607050E-21   3.52052258069439E-26   2.01077044129631E-21
      1.58085221413155E-15   0.00000000000000E+00   0.00000000000000E+00   0.00000000000000E+00   0.00000000000000E+00
      5.98390236057730E-21   3.47243512775286E-26   5.98393708492858E-21   1.58085221413155E-15   6.00000000000000E-01
      6.00000000000000E-01   0.00000000000000E+00   0.00000000000000E+00   0.00000000000000E+00   0.00000000000000E+00
      0.00000000000000E+00   6.70090990112868E-16
      3.00000000000000E-01
      0.00000000000000E+00   0.00000000000000E+00   0.00000000000000E+00   0.00000000000000E+00  -1.53324418419059E-19
      1.53610443734893E-27  -1.53324416882954E-19  -3.98708268568542E-15   0.00000000000000E+00   0.00000000000000E+00
      0.00000000000000E+00   0.00000000000000E+00   1.02939909358271E-19  -3.43413902674521E-27   1.02939905924132E-19
      1.55234669257326E-15   0.00000000000000E+00   0.00000000000000E+00   0.00000000000000E+00   0.00000000000000E+00
      5.03845090606564E-20   1.89816597775750E-27   5.03845109588224E-20   1.55234669257325E-15   9.00000000000000E-01
      9.00000000000000E-01   0.00000000000000E+00   0.00000000000000E+00   0.00000000000000E+00   0.00000000000000E+00
      0.00000000000000E+00   8.82389300538903E-16
      4.00000000000000E-01
      0.00000000000000E+00   0.00000000000000E+00   0.00000000000000E+00   0.00000000000000E+00  -1.28677925150410E-17
      1.44004653408489E-27  -1.28677925136010E-17  -4.14236768000356E-15   0.00000000000000E+00   0.00000000000000E+00
      0.00000000000000E+00   0.00000000000000E+00   6.43338201183814E-18  -1.12378608211543E-28   6.43338201172576E-18
      1.52584256874594E-15   0.00000000000000E+00   0.00000000000000E+00   0.00000000000000E+00   0.00000000000000E+00
      6.43441050321547E-18  -1.34028616852328E-27   6.43441050187518E-18   1.52584256874594E-15   1.20000000000000E+00
      1.20000000000000E+00   0.00000000000000E+00   0.00000000000000E+00   0.00000000000000E+00   0.00000000000000E+00
      0.00000000000000E+00   1.09068254251168E-15
      4.50000000000000E-01
      0.00000000000000E+00   0.00000000000000E+00   0.00000000000000E+00   0.00000000000000E+00  -3.86491021182332E-14
      5.41245488070006E-23  -3.86491020641087E-14  -4.22219120367249E-15   0.00000000000000E+00   0.00000000000000E+00
      0.00000000000000E+00   0.00000000000000E+00   1.93245833492939E-14  -2.70297449842258E-23   1.93245833222641E-14
      1.51386798637408E-15   0.00000000000000E+00   0.00000000000000E+00   0.00000000000000E+00   0.00000000000000E+00
      1.93245187688786E-14  -2.70340618705760E-23   1.93245187418445E-14   1.51386798637408E-15   1.35000000000000E+00
      1.35000000000000E+00   0.00000000000000E+00   0.00000000000000E+00   0.00000000000000E+00   0.00000000000000E+00
      0.00000000000000E+00   1.19445523092433E-15
      5.20000000000000E-01
      0.00000000000000E+00   0.00000000000000E+00   0.00000000000000E+00   0.00000000000000E+00   1.31141684518071E-18
     -4.74607349784487E-27   1.31141684043464E-18  -4.33631052707397E-15   0.00000000000000E+00   0.00000000000000E+00
      0.00000000000000E+00   0.00000000000000E+00  -5.67391553944425E-19  -2.39702349835800E-28  -5.67391554184127E-19
      1.49832088422016E-15   0.00000000000000E+00   0.00000000000000E+00   0.00000000000000E+00   0.00000000000000E+00
     -7.44025291235772E-19   4.98526120183345E-27  -7.44025286250510E-19   1.49832088422016E-15   1.56000000000000E+00
      1.56000000000000E+00   0.00000000000000E+00   0.00000000000000E+00   0.00000000000000E+00   0.00000000000000E+00
      0.00000000000000E+00   1.33966875863365E-15
      6.15666666666667E-01
      0.00000000000000E+00   0.00000000000000E+00   0.00000000000000E+00   0.00000000000000E+00  -5.59135169675867E-19
      1.87591114880498E-27  -5.59135167799956E-19  -4.49657353569256E-15   0.00000000000000E+00   0.00000000000000E+00
      0.00000000000000E+00   0.00000000000000E+00   2.60250750790912E-19  -2.92472921164951E-27   2.60250747866183E-19
      1.47876886045708E-15   0.00000000000000E+00   0.00000000000000E+00   0.00000000000000E+00   0.00000000000000E+00
      2.98884418884804E-19   1.04896886953055E-27   2.98884419933773E-19   1.47876886045708E-15   1.84700000000000E+00
      1.84700000000000E+00   0.00000000000000E+00   0.00000000000000E+00   0.00000000000000E+00   0.00000000000000E+00
      0.00000000000000E+00   1.53903581477841E-15
      7.15666666666667E-01
      0.00000000000000E+00   0.00000000000000E+00   0.00000000000000E+00   0.00000000000000E+00  -1.48007857395180E-18
     -1.54519287984012E-27  -1.48007857549700E-18  -4.67585462872842E-15   0.00000000000000E+00   0.00000000000000E+00
      0.00000000000000E+00   0.00000000000000E+00   8.34131449634816E-19   3.74954596639119E-27   8.34131453384362E-19
      1.46001317192036E-15   0.00000000000000E+00   0.00000000000000E+00   0.00000000000000E+00   0.00000000000000E+00
      6.45947124316830E-19  -2.20419384456240E-27   6.45947122112636E-19   1.46001317192036E-15   2.14700000000000E+00
      2.14700000000000E+00   0.00000000000000E+00   0.00000000000000E+00   0.00000000000000E+00   0.00000000000000E+00
      0.00000000000000E+00   1.75582828488769E-15
      8.15666666666667E-01
      0.00000000000000E+00   0.00000000000000E+00   0.00000000000000E+00   0.00000000000000E+00  -1.85455256285281E-18
      1.98764718374848E-25  -1.85455236408809E-18  -4.90155001010268E-15   0.00000000000000E+00   0.00000000000000E+00
      0.00000000000000E+00   0.00000000000000E+00   9.94691014155973E-19  -3.70727104783958E-27   9.94691010448702E-19
      1.44244449336109E-15   0.00000000000000E+00   0.00000000000000E+00   0.00000000000000E+00   0.00000000000000E+00
      8.59861352689346E-19   9.50046375167013E-28   8.59861353639392E-19   1.44244449336109E-15   2.44700000000000E+00
      2.44700000000000E+00   0.00000000000000E+00   0.00000000000000E+00   0.00000000000000E+00   0.00000000000000E+00
      0.00000000000000E+00   2.01666102338050E-15
      9.15666666666667E-01
      0.00000000000000E+00   0.00000000000000E+00   0.00000000000000E+00   0.00000000000000E+00   3.57225074467908E-18
      1.87639790129101E-25   3.57225093231887E-18  -5.15779219345085E-15   0.00000000000000E+00   0.00000000000000E+00
      0.00000000000000E+00   0.00000000000000E+00  -6.28293098514204E-19  -4.84860353918970E-28  -6.28293098999065E-19
      1.42537995725513E-15   0.00000000000000E+00   0.00000000000000E+00   0.00000000000000E+00   0.00000000000000E+00
     -2.94395783454626E-18   1.22645645834948E-27  -2.94395783331980E-18   1.42537995725513E-15   2.74700000000000E+00
      2.74700000000000E+00   0.00000000000000E+00   0.00000000000000E+00   0.00000000000000E+00   0.00000000000000E+00
      0.00000000000000E+00   2.30703227894059E-15
      1.00000000000000E+00
      0.00000000000000E+00   0.00000000000000E+00   0.00000000000000E+00   0.00000000000000E+00   3.33836191647527E-18
     -2.07272678852861E-27   3.33836191440254E-18  -5.38047096852198E-15   0.00000000000000E+00   0.00000000000000E+00
      0.00000000000000E+00   0.00000000000000E+00  -1.91962626091814E-18   1.28869996749590E-27  -1.91962625962944E-18
      1.41118165915486E-15   0.00000000000000E+00   0.00000000000000E+00   0.00000000000000E+00   0.00000000000000E+00
     -1.41873565555720E-18   7.84101312573248E-28  -1.41873565477310E-18   1.41118165915486E-15   3.00000000000000E+00
      3.00000000000000E+00   0.00000000000000E+00   0.00000000000000E+00   0.00000000000000E+00   0.00000000000000E+00
      0.00000000000000E+00   2.55810765021226E-15
}
