DF-ISE text

Info {
  version   = 1.0
  type      = xyplot
  datasets  = [
    "time"
    "substrate OuterVoltage" "substrate InnerVoltage" "substrate QuasiFermiPotential" "substrate DisplacementCurrent" "substrate eCurrent"
    "substrate hCurrent" "substrate TotalCurrent" "substrate Charge" "source OuterVoltage" "source InnerVoltage"
    "source QuasiFermiPotential" "source DisplacementCurrent" "source eCurrent" "source hCurrent" "source TotalCurrent"
    "source Charge" "drain OuterVoltage" "drain InnerVoltage" "drain QuasiFermiPotential" "drain DisplacementCurrent"
    "drain eCurrent" "drain hCurrent" "drain TotalCurrent" "drain Charge" "gate OuterVoltage"
    "gate InnerVoltage" "gate QuasiFermiPotential" "gate DisplacementCurrent" "gate eCurrent" "gate hCurrent"
    "gate TotalCurrent" "gate Charge" ]
  functions = [
    Time
    OuterVoltage InnerVoltage QuasiFermiPotential DisplacementCurrent eCurrent
    hCurrent TotalCurrent Charge OuterVoltage InnerVoltage
    QuasiFermiPotential DisplacementCurrent eCurrent hCurrent TotalCurrent
    Charge OuterVoltage InnerVoltage QuasiFermiPotential DisplacementCurrent
    eCurrent hCurrent TotalCurrent Charge OuterVoltage
    InnerVoltage QuasiFermiPotential DisplacementCurrent eCurrent hCurrent
    TotalCurrent Charge ]
}

Data {
      0.00000000000000E+00
      0.00000000000000E+00   0.00000000000000E+00   0.00000000000000E+00   0.00000000000000E+00   2.81159196355020E-23
     -1.52139963559702E-24   2.65945199999050E-23  -3.48452548560134E-15   0.00000000000000E+00   0.00000000000000E+00
      0.00000000000000E+00   0.00000000000000E+00  -4.24264196587902E-23   7.19957801551258E-25  -4.17064618572390E-23
      1.63582803925666E-15   0.00000000000000E+00   0.00000000000000E+00   0.00000000000000E+00   0.00000000000000E+00
      1.43104997940020E-23   8.01442063332078E-25   1.51119418573341E-23   1.63582803925666E-15   0.00000000000000E+00
      0.00000000000000E+00   0.00000000000000E+00   0.00000000000000E+00   0.00000000000000E+00   0.00000000000000E+00
      0.00000000000000E+00   2.12869407088036E-16
      0.00000000000000E+00
      0.00000000000000E+00   0.00000000000000E+00   0.00000000000000E+00   0.00000000000000E+00   1.37143706461773E-23
     -1.67937265992556E-25   1.35464333801848E-23  -3.48452548559597E-15   0.00000000000000E+00   0.00000000000000E+00
      0.00000000000000E+00   0.00000000000000E+00  -1.23644693459880E-23   2.93051507618688E-25  -1.20714178383693E-23
      1.63582803925397E-15   0.00000000000000E+00   0.00000000000000E+00   0.00000000000000E+00   0.00000000000000E+00
     -1.34990150304772E-24  -1.25114038767738E-25  -1.47501554181546E-24   1.63582803925397E-15   0.00000000000000E+00
      0.00000000000000E+00   0.00000000000000E+00   0.00000000000000E+00   0.00000000000000E+00   0.00000000000000E+00
      0.00000000000000E+00   2.12869407088036E-16
      1.00000000000000E-01
      0.00000000000000E+00   0.00000000000000E+00   0.00000000000000E+00   0.00000000000000E+00  -2.18338679847271E-21
      2.29258634247933E-26  -2.18336387260928E-21  -3.66638290916965E-15   0.00000000000000E+00   0.00000000000000E+00
      0.00000000000000E+00   0.00000000000000E+00   1.03108643810631E-21   2.12642899358873E-26   1.03110770239625E-21
      1.60894546929422E-15   0.00000000000000E+00   0.00000000000000E+00   0.00000000000000E+00   0.00000000000000E+00
      1.15230035282502E-21  -4.41826119867195E-26   1.15225617021304E-21   1.60894546929422E-15   3.00000000000000E-01
      3.00000000000000E-01   0.00000000000000E+00   0.00000000000000E+00   0.00000000000000E+00   0.00000000000000E+00
      0.00000000000000E+00   4.48491970581209E-16
      2.00000000000000E-01
      0.00000000000000E+00   0.00000000000000E+00   0.00000000000000E+00   0.00000000000000E+00   5.96779322432799E-20
     -6.57932400936503E-26   5.96778664500398E-20  -3.83181612968075E-15   0.00000000000000E+00   0.00000000000000E+00
      0.00000000000000E+00   0.00000000000000E+00  -3.16801908619718E-20   3.59472148216909E-26  -3.16801549147570E-20
      1.58086234356422E-15   0.00000000000000E+00   0.00000000000000E+00   0.00000000000000E+00   0.00000000000000E+00
     -2.79977413274627E-20   2.97921796948297E-26  -2.79977115352830E-20   1.58086234356422E-15   6.00000000000000E-01
      6.00000000000000E-01   0.00000000000000E+00   0.00000000000000E+00   0.00000000000000E+00   0.00000000000000E+00
      0.00000000000000E+00   6.70091442552310E-16
      3.00000000000000E-01
      0.00000000000000E+00   0.00000000000000E+00   0.00000000000000E+00   0.00000000000000E+00  -3.10032827561503E-20
     -1.21402376177509E-26  -3.10032948963879E-20  -3.98710351213059E-15   0.00000000000000E+00   0.00000000000000E+00
      0.00000000000000E+00   0.00000000000000E+00   3.78798262727132E-20   5.48897265752510E-27   3.78798317616858E-20
      1.55235682535503E-15   0.00000000000000E+00   0.00000000000000E+00   0.00000000000000E+00   0.00000000000000E+00
     -6.87654351681329E-21   6.65151549105889E-27  -6.87653686529780E-21   1.55235682535503E-15   9.00000000000000E-01
      9.00000000000000E-01   0.00000000000000E+00   0.00000000000000E+00   0.00000000000000E+00   0.00000000000000E+00
      0.00000000000000E+00   8.82389861420527E-16
      4.00000000000000E-01
      0.00000000000000E+00   0.00000000000000E+00   0.00000000000000E+00   0.00000000000000E+00  -1.37668459295586E-17
      1.64208944176694E-26  -1.37668459131377E-17  -4.14238858071741E-15   0.00000000000000E+00   0.00000000000000E+00
      0.00000000000000E+00   0.00000000000000E+00   6.82331664691219E-18  -5.13750847899486E-27   6.82331664177468E-18
      1.52585269662680E-15   0.00000000000000E+00   0.00000000000000E+00   0.00000000000000E+00   0.00000000000000E+00
      6.94352928265891E-18  -1.12959006918956E-26   6.94352927136301E-18   1.52585269662680E-15   1.20000000000000E+00
      1.20000000000000E+00   0.00000000000000E+00   0.00000000000000E+00   0.00000000000000E+00   0.00000000000000E+00
      0.00000000000000E+00   1.09068318746382E-15
      4.50000000000000E-01
      0.00000000000000E+00   0.00000000000000E+00   0.00000000000000E+00   0.00000000000000E+00  -3.86474882435918E-14
      5.41262805934116E-23  -3.86474881894655E-14  -4.22221213410564E-15   0.00000000000000E+00   0.00000000000000E+00
      0.00000000000000E+00   0.00000000000000E+00   1.93236266243463E-14  -2.70330267529127E-23   1.93236265973132E-14
      1.51387811087677E-15   0.00000000000000E+00   0.00000000000000E+00   0.00000000000000E+00   0.00000000000000E+00
      1.93238616191848E-14  -2.70325140078903E-23   1.93238615921523E-14   1.51387811087677E-15   1.35000000000000E+00
      1.35000000000000E+00   0.00000000000000E+00   0.00000000000000E+00   0.00000000000000E+00   0.00000000000000E+00
      0.00000000000000E+00   1.19445591235211E-15
      5.20000000000000E-01
      0.00000000000000E+00   0.00000000000000E+00   0.00000000000000E+00   0.00000000000000E+00  -3.20514863745931E-18
      8.63551137368078E-27  -3.20514862882380E-18  -4.33633149713735E-15   0.00000000000000E+00   0.00000000000000E+00
      0.00000000000000E+00   0.00000000000000E+00   1.68157915589876E-18  -4.73556752303370E-27   1.68157915116319E-18
      1.49833100528924E-15   0.00000000000000E+00   0.00000000000000E+00   0.00000000000000E+00   0.00000000000000E+00
      1.52356948156091E-18  -3.90029858426795E-27   1.52356947766061E-18   1.49833100528924E-15   1.56000000000000E+00
      1.56000000000000E+00   0.00000000000000E+00   0.00000000000000E+00   0.00000000000000E+00   0.00000000000000E+00
      0.00000000000000E+00   1.33966948655888E-15
      6.15666666666667E-01
      0.00000000000000E+00   0.00000000000000E+00   0.00000000000000E+00   0.00000000000000E+00   1.39248159672657E-18
     -1.32799045784841E-27   1.39248159539858E-18  -4.49659452978945E-15   0.00000000000000E+00   0.00000000000000E+00
      0.00000000000000E+00   0.00000000000000E+00  -2.20237301513176E-18   2.52389097551579E-27  -2.20237301260787E-18
      1.47877897645789E-15   0.00000000000000E+00   0.00000000000000E+00   0.00000000000000E+00   0.00000000000000E+00
      8.09891418404899E-19  -1.19561392980900E-27   8.09891417209285E-19   1.47877897645789E-15   1.84700000000000E+00
      1.84700000000000E+00   0.00000000000000E+00   0.00000000000000E+00   0.00000000000000E+00   0.00000000000000E+00
      0.00000000000000E+00   1.53903657687366E-15
      7.15666666666667E-01
      0.00000000000000E+00   0.00000000000000E+00   0.00000000000000E+00   0.00000000000000E+00   2.05677711130650E-18
     -4.22474972588606E-27   2.05677710708175E-18  -4.67587548175294E-15   0.00000000000000E+00   0.00000000000000E+00
      0.00000000000000E+00   0.00000000000000E+00  -1.81377251836974E-18   3.87399924413859E-27  -1.81377251449574E-18
      1.46002328113660E-15   0.00000000000000E+00   0.00000000000000E+00   0.00000000000000E+00   0.00000000000000E+00
     -2.43004592937041E-19   3.51029582659669E-28  -2.43004592586011E-19   1.46002328113660E-15   2.14700000000000E+00
      2.14700000000000E+00   0.00000000000000E+00   0.00000000000000E+00   0.00000000000000E+00   0.00000000000000E+00
      0.00000000000000E+00   1.75582891947975E-15
      8.15666666666667E-01
      0.00000000000000E+00   0.00000000000000E+00   0.00000000000000E+00   0.00000000000000E+00  -6.20075600239338E-18
      2.03194579348506E-25  -6.20075579919880E-18  -4.90157044022430E-15   0.00000000000000E+00   0.00000000000000E+00
      0.00000000000000E+00   0.00000000000000E+00   3.25032460768536E-18  -4.86789819054609E-27   3.25032460281746E-18
      1.44245459871163E-15   0.00000000000000E+00   0.00000000000000E+00   0.00000000000000E+00   0.00000000000000E+00
      2.95043120028816E-18  -3.90682565679164E-27   2.95043119638134E-18   1.44245459871163E-15   2.44700000000000E+00
      2.44700000000000E+00   0.00000000000000E+00   0.00000000000000E+00   0.00000000000000E+00   0.00000000000000E+00
      0.00000000000000E+00   2.01666124280104E-15
      9.15666666666667E-01
      0.00000000000000E+00   0.00000000000000E+00   0.00000000000000E+00   0.00000000000000E+00  -4.14547035255519E-18
      1.86860467521555E-25  -4.14547016569472E-18  -5.15781251411398E-15   0.00000000000000E+00   0.00000000000000E+00
      0.00000000000000E+00   0.00000000000000E+00   2.12438638668086E-18   1.29659187127325E-27   2.12438638797745E-18
      1.42539006150424E-15   0.00000000000000E+00   0.00000000000000E+00   0.00000000000000E+00   0.00000000000000E+00
      2.02108377489031E-18   2.82696332109915E-27   2.02108377771727E-18   1.42539006150424E-15   2.74700000000000E+00
      2.74700000000000E+00   0.00000000000000E+00   0.00000000000000E+00   0.00000000000000E+00   0.00000000000000E+00
      0.00000000000000E+00   2.30703239110550E-15
      1.00000000000000E+00
      0.00000000000000E+00   0.00000000000000E+00   0.00000000000000E+00   0.00000000000000E+00   1.09821854566926E-18
     -6.57260831338301E-27   1.09821853909665E-18  -5.38049125636188E-15   0.00000000000000E+00   0.00000000000000E+00
      0.00000000000000E+00   0.00000000000000E+00  -4.90152130527850E-19   4.96166620408580E-27  -4.90152125566184E-19
      1.41119176298325E-15   0.00000000000000E+00   0.00000000000000E+00   0.00000000000000E+00   0.00000000000000E+00
     -6.08066415141609E-19   1.61114319313052E-27  -6.08066413530465E-19   1.41119176298325E-15   3.00000000000000E+00
      3.00000000000000E+00   0.00000000000000E+00   0.00000000000000E+00   0.00000000000000E+00   0.00000000000000E+00
      0.00000000000000E+00   2.55810773039537E-15
}
