DF-ISE text

Info {
  version   = 1.0
  type      = xyplot
  datasets  = [
    "time"
    "substrate OuterVoltage" "substrate InnerVoltage" "substrate QuasiFermiPotential" "substrate DisplacementCurrent" "substrate eCurrent"
    "substrate hCurrent" "substrate TotalCurrent" "substrate Charge" "source OuterVoltage" "source InnerVoltage"
    "source QuasiFermiPotential" "source DisplacementCurrent" "source eCurrent" "source hCurrent" "source TotalCurrent"
    "source Charge" "drain OuterVoltage" "drain InnerVoltage" "drain QuasiFermiPotential" "drain DisplacementCurrent"
    "drain eCurrent" "drain hCurrent" "drain TotalCurrent" "drain Charge" "gate OuterVoltage"
    "gate InnerVoltage" "gate QuasiFermiPotential" "gate DisplacementCurrent" "gate eCurrent" "gate hCurrent"
    "gate TotalCurrent" "gate Charge" ]
  functions = [
    Time
    OuterVoltage InnerVoltage QuasiFermiPotential DisplacementCurrent eCurrent
    hCurrent TotalCurrent Charge OuterVoltage InnerVoltage
    QuasiFermiPotential DisplacementCurrent eCurrent hCurrent TotalCurrent
    Charge OuterVoltage InnerVoltage QuasiFermiPotential DisplacementCurrent
    eCurrent hCurrent TotalCurrent Charge OuterVoltage
    InnerVoltage QuasiFermiPotential DisplacementCurrent eCurrent hCurrent
    TotalCurrent Charge ]
}

Data {
      0.00000000000000E+00
      0.00000000000000E+00   0.00000000000000E+00   0.00000000000000E+00   0.00000000000000E+00   1.56766025114552E-23
     -5.97306393308053E-27   1.56706294475221E-23  -2.55220572266352E-15   0.00000000000000E+00   0.00000000000000E+00
      0.00000000000000E+00   0.00000000000000E+00  -1.19602460568105E-23   3.42042960961574E-27  -1.19568256272009E-23
      1.41012831228390E-15   0.00000000000000E+00   0.00000000000000E+00   0.00000000000000E+00   0.00000000000000E+00
     -3.71635533210337E-24   2.55151178216598E-27  -3.71380382032120E-24   1.41012831228390E-15   0.00000000000000E+00
      0.00000000000000E+00   0.00000000000000E+00   0.00000000000000E+00   0.00000000000000E+00   0.00000000000000E+00
      0.00000000000000E+00  -2.68050901904283E-16
      0.00000000000000E+00
      0.00000000000000E+00   0.00000000000000E+00   0.00000000000000E+00   0.00000000000000E+00  -1.06748820692172E-21
     -3.62302835776599E-28  -1.06748856922455E-21  -2.55220572265375E-15   0.00000000000000E+00   0.00000000000000E+00
      0.00000000000000E+00   0.00000000000000E+00  -4.42951085836769E-22   4.01315636235137E-29  -4.42951045705205E-22
      1.41012831228119E-15   0.00000000000000E+00   0.00000000000000E+00   0.00000000000000E+00   0.00000000000000E+00
      1.51043929281850E-21   3.22111255109977E-28   1.51043961492976E-21   1.41012831228119E-15   0.00000000000000E+00
      0.00000000000000E+00   0.00000000000000E+00   0.00000000000000E+00   0.00000000000000E+00   0.00000000000000E+00
      0.00000000000000E+00  -2.68050901908618E-16
      1.00000000000000E-01
      0.00000000000000E+00   0.00000000000000E+00   0.00000000000000E+00   0.00000000000000E+00   2.13559195517285E-19
     -2.33317145272759E-28   2.13559195283967E-19  -2.62075228251582E-15   0.00000000000000E+00   0.00000000000000E+00
      0.00000000000000E+00   0.00000000000000E+00  -8.66157442057241E-20   2.36986551638487E-28  -8.66157439687375E-20
      1.21287567625440E-15   0.00000000000000E+00   0.00000000000000E+00   0.00000000000000E+00   0.00000000000000E+00
     -1.26943451279179E-19  -3.60507667965902E-29  -1.26943451315230E-19   1.21287567625440E-15   5.00000000000000E-01
      5.00000000000000E-01   0.00000000000000E+00   0.00000000000000E+00   0.00000000000000E+00   0.00000000000000E+00
      0.00000000000000E+00   1.95000930007016E-16
      2.00000000000000E-01
      0.00000000000000E+00   0.00000000000000E+00   0.00000000000000E+00   0.00000000000000E+00   2.14284253438916E-18
      2.34485870311752E-28   2.14284253462364E-18  -2.70358946584531E-15   0.00000000000000E+00   0.00000000000000E+00
      0.00000000000000E+00   0.00000000000000E+00  -1.15368271825891E-18  -1.80955715543386E-28  -1.15368271843986E-18
      1.01810300242756E-15   0.00000000000000E+00   0.00000000000000E+00   0.00000000000000E+00   0.00000000000000E+00
     -9.89159816130246E-19  -5.35337805534082E-29  -9.89159816183780E-19   1.01810300242756E-15   1.00000000000000E+00
      1.00000000000000E+00   0.00000000000000E+00   0.00000000000000E+00   0.00000000000000E+00   0.00000000000000E+00
      0.00000000000000E+00   6.67383460990197E-16
      3.00000000000000E-01
      0.00000000000000E+00   0.00000000000000E+00   0.00000000000000E+00   0.00000000000000E+00  -3.22374853444608E-18
     -8.03653159339353E-28  -3.22374853524973E-18  -2.86113975823757E-15   0.00000000000000E+00   0.00000000000000E+00
      0.00000000000000E+00   0.00000000000000E+00   1.64965726581626E-18   4.27539477626041E-28   1.64965726624380E-18
      8.39337731457232E-16   0.00000000000000E+00   0.00000000000000E+00   0.00000000000000E+00   0.00000000000000E+00
      1.57409126862962E-18   3.76310992552877E-28   1.57409126900593E-18   8.39337731457232E-16   1.50000000000000E+00
      1.50000000000000E+00   0.00000000000000E+00   0.00000000000000E+00   0.00000000000000E+00   0.00000000000000E+00
      0.00000000000000E+00   1.18246429532310E-15
      3.50000000000000E-01
      0.00000000000000E+00   0.00000000000000E+00   0.00000000000000E+00   0.00000000000000E+00   4.42082754023458E-18
      3.45091857440220E-25   4.42082788532644E-18  -2.98337758501375E-15   0.00000000000000E+00   0.00000000000000E+00
      0.00000000000000E+00   0.00000000000000E+00  -2.15024314722028E-18  -4.25483481988647E-29  -2.15024314726283E-18
      7.56092983743306E-16   0.00000000000000E+00   0.00000000000000E+00   0.00000000000000E+00   0.00000000000000E+00
     -2.27058473799638E-18  -6.72243920946339E-29  -2.27058473806360E-18   7.56092983743306E-16   1.75000000000000E+00
      1.75000000000000E+00   0.00000000000000E+00   0.00000000000000E+00   0.00000000000000E+00   0.00000000000000E+00
      0.00000000000000E+00   1.47119161752713E-15
      4.15000000000000E-01
      0.00000000000000E+00   0.00000000000000E+00   0.00000000000000E+00   0.00000000000000E+00  -3.34463041322414E-17
     -1.12272830858327E-25  -3.34463042445143E-17  -3.15466985819800E-15   0.00000000000000E+00   0.00000000000000E+00
      0.00000000000000E+00   0.00000000000000E+00   1.67138558816402E-17   1.12020092839621E-29   1.67138558816514E-17
      6.49339066882714E-16   0.00000000000000E+00   0.00000000000000E+00   0.00000000000000E+00   0.00000000000000E+00
      1.67324483626180E-17   2.44787487521381E-28   1.67324483628628E-17   6.49339066882714E-16   2.07500000000000E+00
      2.07500000000000E+00   0.00000000000000E+00   0.00000000000000E+00   0.00000000000000E+00   0.00000000000000E+00
      0.00000000000000E+00   1.85599172443258E-15
      4.93000000000000E-01
      0.00000000000000E+00   0.00000000000000E+00   0.00000000000000E+00   0.00000000000000E+00   1.66169791934593E-17
     -8.06924510710339E-27   1.66169791853900E-17  -3.36628125361773E-15   0.00000000000000E+00   0.00000000000000E+00
      0.00000000000000E+00   0.00000000000000E+00  -8.16591065760088E-18   2.68417111105008E-29  -8.16591065757403E-18
      5.21911189288955E-16   0.00000000000000E+00   0.00000000000000E+00   0.00000000000000E+00   0.00000000000000E+00
     -8.45106852775983E-18  -5.61530995255905E-29  -8.45106852781598E-18   5.21911189288955E-16   2.46500000000000E+00
      2.46500000000000E+00   0.00000000000000E+00   0.00000000000000E+00   0.00000000000000E+00   0.00000000000000E+00
      0.00000000000000E+00   2.32245887503982E-15
      5.93000000000000E-01
      0.00000000000000E+00   0.00000000000000E+00   0.00000000000000E+00   0.00000000000000E+00   3.37353502330149E-17
      3.74942995348040E-29   3.37353502330524E-17  -3.64179659849711E-15   0.00000000000000E+00   0.00000000000000E+00
      0.00000000000000E+00   0.00000000000000E+00  -1.79938610967149E-17  -5.01932018049523E-29  -1.79938610967651E-17
      3.58915450758981E-16   0.00000000000000E+00   0.00000000000000E+00   0.00000000000000E+00   0.00000000000000E+00
     -1.57414891363002E-17   1.28722872601467E-29  -1.57414891362873E-17   3.58915450758981E-16   2.96500000000000E+00
      2.96500000000000E+00   0.00000000000000E+00   0.00000000000000E+00   0.00000000000000E+00   0.00000000000000E+00
      0.00000000000000E+00   2.92396569697915E-15
      6.93000000000000E-01
      0.00000000000000E+00   0.00000000000000E+00   0.00000000000000E+00   0.00000000000000E+00  -2.77221109833798E-13
      3.92550061903176E-26  -2.77221109833758E-13  -3.91978040590010E-15   0.00000000000000E+00   0.00000000000000E+00
      0.00000000000000E+00   0.00000000000000E+00   1.38610140846097E-13   2.73043734873155E-28   1.38610140846098E-13
      1.96059170701182E-16   0.00000000000000E+00   0.00000000000000E+00   0.00000000000000E+00   0.00000000000000E+00
      1.38610968987660E-13   4.78229380378668E-28   1.38610968987661E-13   1.96059170701182E-16   3.46500000000000E+00
      3.46500000000000E+00   0.00000000000000E+00   0.00000000000000E+00   0.00000000000000E+00   0.00000000000000E+00
      0.00000000000000E+00   3.52766206449774E-15
      7.93000000000000E-01
      0.00000000000000E+00   0.00000000000000E+00   0.00000000000000E+00   0.00000000000000E+00  -9.68396035872342E-15
      3.89697535454376E-28  -9.68396035872303E-15  -4.19920836278471E-15   0.00000000000000E+00   0.00000000000000E+00
      0.00000000000000E+00   0.00000000000000E+00   4.84205635149695E-15   1.04232331854709E-28   4.84205635149706E-15
      3.32355697239512E-17   0.00000000000000E+00   0.00000000000000E+00   0.00000000000000E+00   0.00000000000000E+00
      4.84190400722587E-15   9.97176062304473E-29   4.84190400722597E-15   3.32355697239512E-17   3.96500000000000E+00
      3.96500000000000E+00   0.00000000000000E+00   0.00000000000000E+00   0.00000000000000E+00   0.00000000000000E+00
      0.00000000000000E+00   4.13273722333681E-15
      8.93000000000000E-01
      0.00000000000000E+00   0.00000000000000E+00   0.00000000000000E+00   0.00000000000000E+00  -4.42908100460236E-16
     -5.16427110684771E-29  -4.42908100460287E-16  -4.47957758298131E-15   0.00000000000000E+00   0.00000000000000E+00
      0.00000000000000E+00   0.00000000000000E+00   2.23139924287711E-16   9.99432245013750E-29   2.23139924287811E-16
     -1.29595260555369E-16   0.00000000000000E+00   0.00000000000000E+00   0.00000000000000E+00   0.00000000000000E+00
      2.19768176172505E-16  -2.86364416075740E-29   2.19768176172476E-16  -1.29595260555370E-16   4.46500000000000E+00
      4.46500000000000E+00   0.00000000000000E+00   0.00000000000000E+00   0.00000000000000E+00   0.00000000000000E+00
      0.00000000000000E+00   4.73876810409204E-15
      9.93000000000000E-01
      0.00000000000000E+00   0.00000000000000E+00   0.00000000000000E+00   0.00000000000000E+00  -6.00041948814168E-17
     -2.59302747392955E-28  -6.00041948816761E-17  -4.76060468863686E-15   0.00000000000000E+00   0.00000000000000E+00
      0.00000000000000E+00   0.00000000000000E+00   3.35813113130923E-17   1.31742219402497E-28   3.35813113132241E-17
     -2.92448765209938E-16   0.00000000000000E+00   0.00000000000000E+00   0.00000000000000E+00   0.00000000000000E+00
      2.64228835683244E-17   1.27683210081865E-28   2.64228835684521E-17  -2.92448765209938E-16   4.96500000000000E+00
      4.96500000000000E+00   0.00000000000000E+00   0.00000000000000E+00   0.00000000000000E+00   0.00000000000000E+00
      0.00000000000000E+00   5.34550221905674E-15
      1.00000000000000E+00
      0.00000000000000E+00   0.00000000000000E+00   0.00000000000000E+00   0.00000000000000E+00  -5.20037799522217E-17
     -5.31059181319154E-28  -5.20037799527527E-17  -4.78029627745429E-15   0.00000000000000E+00   0.00000000000000E+00
      0.00000000000000E+00   0.00000000000000E+00   2.66397785154834E-17   3.80584712526977E-28   2.66397785158640E-17
     -3.03849533992691E-16   0.00000000000000E+00   0.00000000000000E+00   0.00000000000000E+00   0.00000000000000E+00
      2.53640014367383E-17   1.50434831363345E-28   2.53640014368887E-17  -3.03849533992691E-16   5.00000000000000E+00
      5.00000000000000E+00   0.00000000000000E+00   0.00000000000000E+00   0.00000000000000E+00   0.00000000000000E+00
      0.00000000000000E+00   5.38799534543966E-15
}
