DF-ISE text

Info {
  version   = 1.0
  type      = xyplot
  datasets  = [
    "time"
    "Left OuterVoltage" "Left InnerVoltage" "Left QuasiFermiPotential" "Left DisplacementCurrent" "Left eCurrent"
    "Left hCurrent" "Left TotalCurrent" "Left Charge" "Right OuterVoltage" "Right InnerVoltage"
    "Right QuasiFermiPotential" "Right DisplacementCurrent" "Right eCurrent" "Right hCurrent" "Right TotalCurrent"
    "Right Charge" ]
  functions = [
    Time
    OuterVoltage InnerVoltage QuasiFermiPotential DisplacementCurrent eCurrent
    hCurrent TotalCurrent Charge OuterVoltage InnerVoltage
    QuasiFermiPotential DisplacementCurrent eCurrent hCurrent TotalCurrent
    Charge ]
}

Data {
      0.00000000000000E+00
      0.00000000000000E+00   0.00000000000000E+00   0.00000000000000E+00   0.00000000000000E+00   1.52780804590361E-37
     -2.59334949307171E-32  -2.59333421499125E-32  -3.46684271527089E-15   0.00000000000000E+00   0.00000000000000E+00
      0.00000000000000E+00   0.00000000000000E+00   2.66031486145684E-37   2.59330761184273E-32   2.59333421499134E-32
      3.46684271527089E-15
      0.00000000000000E+00
      0.00000000000000E+00   0.00000000000000E+00   0.00000000000000E+00   0.00000000000000E+00   5.31839396760655E-32
      4.35676764283278E-32   9.67516161043933E-32  -3.46684271522130E-15   0.00000000000000E+00   0.00000000000000E+00
      0.00000000000000E+00   0.00000000000000E+00  -5.31832673653833E-32  -4.35683487390105E-32  -9.67516161043938E-32
      3.46684271522130E-15
      1.00000000000000E-02
     -5.00000000000000E-02  -5.00000000000000E-02   0.00000000000000E+00   0.00000000000000E+00  -5.72514929706031E-21
     -4.88014454639168E-21  -1.06052938434520E-20  -3.63253622230734E-15   0.00000000000000E+00   0.00000000000000E+00
      0.00000000000000E+00   0.00000000000000E+00   5.76216959600760E-21   4.84312424744440E-21   1.06052938434520E-20
      3.63253622230734E-15
      2.94666666666667E-02
     -1.47333333333333E-01  -1.47333333333333E-01   0.00000000000000E+00   0.00000000000000E+00  -6.64140568075055E-21
     -5.66772878034797E-21  -1.23091344610985E-20  -3.95508619484344E-15   0.00000000000000E+00   0.00000000000000E+00
      0.00000000000000E+00   0.00000000000000E+00   6.68443194287688E-21   5.62470251822164E-21   1.23091344610985E-20
      3.95508619484344E-15
      6.73617777777778E-02
     -3.36808888888889E-01  -3.36808888888889E-01   0.00000000000000E+00   0.00000000000000E+00  -6.54216693723072E-21
     -5.67968987707430E-21  -1.22218568143050E-20  -4.58298326753644E-15   0.00000000000000E+00   0.00000000000000E+00
      0.00000000000000E+00   0.00000000000000E+00   6.58526278978813E-21   5.63659402451690E-21   1.22218568143050E-20
      4.58298326753645E-15
      1.41130927407407E-01
     -7.05654637037037E-01  -7.05654637037037E-01   0.00000000000000E+00   0.00000000000000E+00  -1.18351298034261E-20
     -9.13386174354892E-21  -2.09689915469750E-20  -5.80528878160179E-15   0.00000000000000E+00   0.00000000000000E+00
      0.00000000000000E+00   0.00000000000000E+00   1.18991096437852E-20   9.06988190318978E-21   2.09689915469750E-20
      5.80528878160179E-15
      2.80800517372840E-01
     -1.40400258686420E+00  -1.40400258686420E+00   0.00000000000000E+00   0.00000000000000E+00  -5.20025349750613E-17
     -6.49635386047914E-17  -1.16966073579853E-16  -8.11951768922873E-15   0.00000000000000E+00   0.00000000000000E+00
      0.00000000000000E+00   0.00000000000000E+00   6.49008891886304E-17   5.20651843912223E-17   1.16966073579853E-16
      8.11951768922872E-15
      3.80800517372840E-01
     -1.90400258686420E+00  -1.90400258686420E+00   0.00000000000000E+00   0.00000000000000E+00  -1.14753766057616E-16
     -1.83698649941067E-16  -2.98452415998682E-16  -9.77644649363178E-15   0.00000000000000E+00   0.00000000000000E+00
      0.00000000000000E+00   0.00000000000000E+00   1.84440180370871E-16   1.14012235627811E-16   2.98452415998682E-16
      9.77644649363178E-15
      4.71467184039506E-01
     -2.35733592019753E+00  -2.35733592019753E+00   0.00000000000000E+00   0.00000000000000E+00  -8.73909934697220E-17
     -1.88583906052864E-16  -2.75974899522586E-16  -1.12787269237044E-14   0.00000000000000E+00   0.00000000000000E+00
      0.00000000000000E+00   0.00000000000000E+00   1.87595701040468E-16   8.83791984821190E-17   2.75974899522586E-16
      1.12787269237044E-14
      6.35876072928395E-01
     -3.17938036464198E+00  -3.17938036464198E+00   0.00000000000000E+00   0.00000000000000E+00  -5.94004389118269E-16
     -2.11326579293514E-15  -2.70727018205341E-15  -1.40028579808519E-14   0.00000000000000E+00   0.00000000000000E+00
      0.00000000000000E+00   0.00000000000000E+00   2.09956212283480E-15   6.07708059218607E-16   2.70727018205341E-15
      1.40028579808519E-14
      7.35876072928395E-01
     -3.67938036464198E+00  -3.67938036464198E+00   0.00000000000000E+00   0.00000000000000E+00  -1.65707300383031E-15
     -8.39883915402796E-15  -1.00559121578583E-14  -1.56597797978733E-14   0.00000000000000E+00   0.00000000000000E+00
      0.00000000000000E+00   0.00000000000000E+00   8.38914746580439E-15   1.66676469205389E-15   1.00559121578583E-14
      1.56597797978733E-14
      8.26542739595062E-01
     -4.13271369797531E+00  -4.13271369797531E+00   0.00000000000000E+00   0.00000000000000E+00  -5.91526833014938E-16
     -4.19060487729901E-15  -4.78213171031395E-15  -1.71620538516170E-14   0.00000000000000E+00   0.00000000000000E+00
      0.00000000000000E+00   0.00000000000000E+00   4.18673382353588E-15   5.95397886778062E-16   4.78213171031395E-15
      1.71620538516170E-14
      9.08747184039506E-01
     -4.54373592019753E+00  -4.54373592019753E+00   0.00000000000000E+00   0.00000000000000E+00  -1.98940188624254E-16
     -2.10132653565333E-15  -2.30026672427758E-15  -1.85241142318017E-14   0.00000000000000E+00   0.00000000000000E+00
      0.00000000000000E+00   0.00000000000000E+00   2.09450173983627E-15   2.05764984441309E-16   2.30026672427758E-15
      1.85241142318018E-14
      1.00000000000000E+00
     -5.00000000000000E+00  -5.00000000000000E+00   0.00000000000000E+00   0.00000000000000E+00  -2.58289682772961E-15
     -5.23584297113114E-14  -5.49413265390410E-14  -2.00360971233254E-14   0.00000000000000E+00   0.00000000000000E+00
      0.00000000000000E+00   0.00000000000000E+00   5.22627947792830E-14   2.67853175975810E-15   5.49413265390411E-14
      2.00360971233254E-14
}
