DF-ISE text

Info {
  version   = 1.0
  type      = xyplot
  datasets  = [
    "time"
    "Left OuterVoltage" "Left InnerVoltage" "Left QuasiFermiPotential" "Left DisplacementCurrent" "Left eCurrent"
    "Left hCurrent" "Left TotalCurrent" "Left Charge" "Right OuterVoltage" "Right InnerVoltage"
    "Right QuasiFermiPotential" "Right DisplacementCurrent" "Right eCurrent" "Right hCurrent" "Right TotalCurrent"
    "Right Charge" ]
  functions = [
    Time
    OuterVoltage InnerVoltage QuasiFermiPotential DisplacementCurrent eCurrent
    hCurrent TotalCurrent Charge OuterVoltage InnerVoltage
    QuasiFermiPotential DisplacementCurrent eCurrent hCurrent TotalCurrent
    Charge ]
}

Data {
      0.00000000000000E+00
      0.00000000000000E+00   0.00000000000000E+00   0.00000000000000E+00   0.00000000000000E+00  -9.62655051308253E-27
     -3.47604350231342E-27  -1.31025940153959E-26  -3.25779452214830E-16   0.00000000000000E+00   0.00000000000000E+00
      0.00000000000000E+00   0.00000000000000E+00   9.62667199120137E-27   3.47592202419449E-27   1.31025940153959E-26
      3.25779452214829E-16
      0.00000000000000E+00
      0.00000000000000E+00   0.00000000000000E+00   0.00000000000000E+00   0.00000000000000E+00   5.73586156691563E-26
      2.14351700836697E-26   7.87937857528261E-26  -3.25779451231201E-16   0.00000000000000E+00   0.00000000000000E+00
      0.00000000000000E+00   0.00000000000000E+00  -5.73585016453628E-26  -2.14352841074625E-26  -7.87937857528253E-26
      3.25779451231202E-16
      1.00000000000000E-02
      1.00000000000000E-02   1.00000000000000E-02   0.00000000000000E+00   0.00000000000000E+00   6.25707235293158E-18
      9.68167828018139E-18   1.59387506331130E-17  -3.23222024502247E-16   0.00000000000000E+00   0.00000000000000E+00
      0.00000000000000E+00   0.00000000000000E+00  -1.35766763470645E-17  -2.36207428604848E-18  -1.59387506331130E-17
      3.23222024502247E-16
      2.92000000000000E-02
      2.92000000000000E-02   2.92000000000000E-02   0.00000000000000E+00   0.00000000000000E+00   2.72144813016064E-17
      3.48092032374974E-17   6.20236845391038E-17  -3.18254165353279E-16   0.00000000000000E+00   0.00000000000000E+00
      0.00000000000000E+00   0.00000000000000E+00  -5.16372255284077E-17  -1.03864590106962E-17  -6.20236845391039E-17
      3.18254165353276E-16
      6.60640000000000E-02
      6.60640000000000E-02   6.60640000000000E-02   0.00000000000000E+00   0.00000000000000E+00   1.48890860627599E-16
      1.35366150509143E-16   2.84257011136742E-16  -3.08491719626782E-16   0.00000000000000E+00   0.00000000000000E+00
      0.00000000000000E+00   0.00000000000000E+00  -2.26332962189282E-16  -5.79240489474605E-17  -2.84257011136742E-16
      3.08491719626781E-16
      1.35859840000000E-01
      1.35859840000000E-01   1.35859840000000E-01   0.00000000000000E+00   0.00000000000000E+00   2.29080363883451E-15
      1.29282617966309E-15   3.58362981849759E-15  -2.89106833580565E-16   0.00000000000000E+00   0.00000000000000E+00
      0.00000000000000E+00   0.00000000000000E+00  -2.67679721836292E-15  -9.06832600134662E-16  -3.58362981849759E-15
      2.89106833580565E-16
      2.66145408000000E-01
      2.66145408000000E-01   2.66145408000000E-01   0.00000000000000E+00   0.00000000000000E+00   3.44427340255131E-13
      1.42907339781191E-13   4.87334680036322E-13  -2.48920078124297E-16   0.00000000000000E+00   0.00000000000000E+00
      0.00000000000000E+00   0.00000000000000E+00  -3.50946350025670E-13  -1.36388330010651E-13  -4.87334680036321E-13
      2.48920078124294E-16
      4.66145408000000E-01
      4.66145408000000E-01   4.66145408000000E-01   0.00000000000000E+00   0.00000000000000E+00   7.47928183341242E-10
      2.95729067482436E-10   1.04365725082368E-09  -1.70125579317890E-16   0.00000000000000E+00   0.00000000000000E+00
      0.00000000000000E+00   0.00000000000000E+00  -7.48727095802825E-10  -2.94930155020847E-10  -1.04365725082367E-09
      1.70125579317889E-16
      5.16145408000000E-01
      5.16145408000000E-01   5.16145408000000E-01   0.00000000000000E+00   0.00000000000000E+00   5.07678516937938E-09
      2.00259881469551E-09   7.07938398407489E-09  -1.44768086863034E-16   0.00000000000000E+00   0.00000000000000E+00
      0.00000000000000E+00   0.00000000000000E+00  -5.08022584822215E-09  -1.99915813585271E-09  -7.07938398407486E-09
      1.44768086863035E-16
      5.62812074666667E-01
      5.62812074666667E-01   5.62812074666667E-01   0.00000000000000E+00   0.00000000000000E+00   2.99749462074787E-08
      1.17977146913227E-08   4.17726608988014E-08  -1.18217415741748E-16   0.00000000000000E+00   0.00000000000000E+00
      0.00000000000000E+00   0.00000000000000E+00  -2.99899950809401E-08  -1.17826658178613E-08  -4.17726608988014E-08
      1.18217415741749E-16
      6.49923185777778E-01
      6.49923185777778E-01   6.49923185777778E-01   0.00000000000000E+00   0.00000000000000E+00   6.52443548945485E-07
      2.54339772686116E-07   9.06783321631601E-07  -6.70875512311625E-17   0.00000000000000E+00   0.00000000000000E+00
      0.00000000000000E+00   0.00000000000000E+00  -6.52658514079580E-07  -2.54124807552017E-07  -9.06783321631596E-07
      6.70875512311632E-17
      7.24258000592593E-01
      7.24258000592593E-01   7.24258000592593E-01   0.00000000000000E+00   0.00000000000000E+00   3.98427705035102E-06
      1.53342844963750E-06   5.51770549998853E-06  -3.96218407258966E-17   0.00000000000000E+00   0.00000000000000E+00
      0.00000000000000E+00   0.00000000000000E+00  -3.98510606275734E-06  -1.53259943723117E-06  -5.51770549998851E-06
      3.96218407258970E-17
      7.90663768493827E-01
      7.90663768493827E-01   7.90663768493827E-01   0.00000000000000E+00   0.00000000000000E+00   1.07516422230942E-05
      4.12646723281088E-06   1.48781094559050E-05  -2.67664943377001E-17   0.00000000000000E+00   0.00000000000000E+00
      0.00000000000000E+00   0.00000000000000E+00  -1.07531897212667E-05  -4.12491973463832E-06  -1.48781094559050E-05
      2.67664943376999E-17
      8.51757074962963E-01
      8.51757074962963E-01   8.51757074962963E-01   0.00000000000000E+00   0.00000000000000E+00   2.02179525209763E-05
      7.78496552803820E-06   2.80029180490145E-05  -1.92550454159884E-17   0.00000000000000E+00   0.00000000000000E+00
      0.00000000000000E+00   0.00000000000000E+00  -2.02201903683998E-05  -7.78272768061472E-06  -2.80029180490145E-05
      1.92550454159881E-17
      9.65797913705350E-01
      9.65797913705350E-01   9.65797913705350E-01   0.00000000000000E+00   0.00000000000000E+00   4.48495570344618E-05
      1.74880792991695E-05   6.23376363336313E-05  -1.01803155365218E-17   0.00000000000000E+00   0.00000000000000E+00
      0.00000000000000E+00   0.00000000000000E+00  -4.48530607097946E-05  -1.74845756238366E-05  -6.23376363336313E-05
      1.01803155365218E-17
      1.00000000000000E+00
      1.00000000000000E+00   1.00000000000000E+00   0.00000000000000E+00   0.00000000000000E+00   5.34724937096734E-05
      2.09435683949467E-05   7.44160621046201E-05  -8.18977949100659E-18   0.00000000000000E+00   0.00000000000000E+00
      0.00000000000000E+00   0.00000000000000E+00  -5.34763539918222E-05  -2.09397081127983E-05  -7.44160621046204E-05
      8.18977949100653E-18
}
