DF-ISE text

Info {
  version   = 1.0
  type      = xyplot
  datasets  = [
    "time"
    "Left OuterVoltage" "Left InnerVoltage" "Left QuasiFermiPotential" "Left DisplacementCurrent" "Left eCurrent"
    "Left hCurrent" "Left TotalCurrent" "Left Charge" "Right OuterVoltage" "Right InnerVoltage"
    "Right QuasiFermiPotential" "Right DisplacementCurrent" "Right eCurrent" "Right hCurrent" "Right TotalCurrent"
    "Right Charge" ]
  functions = [
    Time
    OuterVoltage InnerVoltage QuasiFermiPotential DisplacementCurrent eCurrent
    hCurrent TotalCurrent Charge OuterVoltage InnerVoltage
    QuasiFermiPotential DisplacementCurrent eCurrent hCurrent TotalCurrent
    Charge ]
}

Data {
      0.00000000000000E+00
      0.00000000000000E+00   0.00000000000000E+00   0.00000000000000E+00   0.00000000000000E+00   1.08630037620765E-30
      1.22732016462223E-30   2.31362054082989E-30  -2.81499289031748E-15   0.00000000000000E+00   0.00000000000000E+00
      0.00000000000000E+00   0.00000000000000E+00  -1.08629789060923E-30  -1.22732265022066E-30  -2.31362054082988E-30
      2.81499289031748E-15
      0.00000000000000E+00
      0.00000000000000E+00   0.00000000000000E+00   0.00000000000000E+00   0.00000000000000E+00  -2.07444624974501E-30
     -1.18271545664832E-30  -3.25716170639332E-30  -2.81499288564274E-15   0.00000000000000E+00   0.00000000000000E+00
      0.00000000000000E+00   0.00000000000000E+00   2.07444823085375E-30   1.18271347553960E-30   3.25716170639335E-30
      2.81499288564274E-15
      1.00000000000000E-02
      1.00000000000000E-02   1.00000000000000E-02   0.00000000000000E+00   0.00000000000000E+00   6.18372240680455E-20
      3.62222946395612E-20   9.80595187076067E-20  -2.78408905494566E-15   0.00000000000000E+00   0.00000000000000E+00
      0.00000000000000E+00   0.00000000000000E+00  -6.19741010976197E-20  -3.60854176099889E-20  -9.80595187076086E-20
      2.78408905494566E-15
      2.94666666666667E-02
      2.94666666666667E-02   2.94666666666667E-02   0.00000000000000E+00   0.00000000000000E+00   2.80097533948405E-19
      1.62893845294212E-19   4.42991379242618E-19  -2.72385504785507E-15   0.00000000000000E+00   0.00000000000000E+00
      0.00000000000000E+00   0.00000000000000E+00  -2.80712678790712E-19  -1.62278700451905E-19  -4.42991379242617E-19
      2.72385504785507E-15
      6.73617777777778E-02
      6.73617777777778E-02   6.73617777777778E-02   0.00000000000000E+00   0.00000000000000E+00   1.62733039517503E-18
      9.57604800211905E-19   2.58493519538693E-18  -2.60633042667929E-15   0.00000000000000E+00   0.00000000000000E+00
      0.00000000000000E+00   0.00000000000000E+00  -1.63095070533170E-18  -9.53984490055231E-19  -2.58493519538693E-18
      2.60633042667929E-15
      1.40120391111111E-01
      1.40120391111111E-01   1.40120391111111E-01   0.00000000000000E+00   0.00000000000000E+00   2.89898734151175E-17
      1.70238671898983E-17   4.60137406050157E-17  -2.37977288055595E-15   0.00000000000000E+00   0.00000000000000E+00
      0.00000000000000E+00   0.00000000000000E+00  -2.90545396138149E-17  -1.69592009912007E-17  -4.60137406050156E-17
      2.37977288055594E-15
      2.79816928711111E-01
      2.79816928711111E-01   2.79816928711111E-01   0.00000000000000E+00   0.00000000000000E+00   6.45754305723224E-15
      3.81018975692975E-15   1.02677328141620E-14  -1.94193213223594E-15   0.00000000000000E+00   0.00000000000000E+00
      0.00000000000000E+00   0.00000000000000E+00  -6.47183312771127E-15  -3.79589968645076E-15  -1.02677328141620E-14
      1.94193213223594E-15
      4.79816928711111E-01
      4.79816928711111E-01   4.79816928711111E-01   0.00000000000000E+00   0.00000000000000E+00   1.47444254352444E-11
      8.69903830568951E-12   2.34434637409340E-11  -1.30997932280090E-15   0.00000000000000E+00   0.00000000000000E+00
      0.00000000000000E+00   0.00000000000000E+00  -1.47767723441966E-11  -8.66669139673730E-12  -2.34434637409340E-11
      1.30997932280090E-15
      6.79816928711111E-01
      6.79816928711111E-01   6.79816928711111E-01   0.00000000000000E+00   0.00000000000000E+00   3.36099664863441E-08
      1.98256854702806E-08   5.34356519566248E-08  -6.73631007619659E-16   0.00000000000000E+00   0.00000000000000E+00
      0.00000000000000E+00   0.00000000000000E+00  -3.36832341172507E-08  -1.97524178393738E-08  -5.34356519566244E-08
      6.73631007619655E-16
      7.79816928711111E-01
      7.79816928711111E-01   7.79816928711111E-01   0.00000000000000E+00   0.00000000000000E+00   1.56040429685130E-06
      9.19843125164061E-07   2.48024742201536E-06  -3.58675211279946E-16   0.00000000000000E+00   0.00000000000000E+00
      0.00000000000000E+00   0.00000000000000E+00  -1.56378350350710E-06  -9.16463918508257E-07  -2.48024742201535E-06
      3.58675211279949E-16
      8.73150262044444E-01
      8.73150262044444E-01   8.73150262044444E-01   0.00000000000000E+00   0.00000000000000E+00   3.46403344168919E-05
      2.02779112973774E-05   5.49182457142693E-05  -1.35801299700668E-16   0.00000000000000E+00   0.00000000000000E+00
      0.00000000000000E+00   0.00000000000000E+00  -3.47126315651097E-05  -2.02056141491596E-05  -5.49182457142693E-05
      1.35801299700667E-16
      1.00000000000000E+00
      1.00000000000000E+00   1.00000000000000E+00   0.00000000000000E+00   0.00000000000000E+00   3.09925679934297E-04
      1.79392161536763E-04   4.89317841471060E-04  -4.66648585795443E-17   0.00000000000000E+00   0.00000000000000E+00
      0.00000000000000E+00   0.00000000000000E+00  -3.10586412999399E-04  -1.78731428471662E-04  -4.89317841471061E-04
      4.66648585795448E-17
}
