DF-ISE text

Info {
  version   = 1.0
  type      = xyplot
  datasets  = [
    "time"
    "Left OuterVoltage" "Left InnerVoltage" "Left QuasiFermiPotential" "Left DisplacementCurrent" "Left eCurrent"
    "Left hCurrent" "Left TotalCurrent" "Left Charge" "Right OuterVoltage" "Right InnerVoltage"
    "Right QuasiFermiPotential" "Right DisplacementCurrent" "Right eCurrent" "Right hCurrent" "Right TotalCurrent"
    "Right Charge" ]
  functions = [
    Time
    OuterVoltage InnerVoltage QuasiFermiPotential DisplacementCurrent eCurrent
    hCurrent TotalCurrent Charge OuterVoltage InnerVoltage
    QuasiFermiPotential DisplacementCurrent eCurrent hCurrent TotalCurrent
    Charge ]
}

Data {
      0.00000000000000E+00
      0.00000000000000E+00   0.00000000000000E+00   0.00000000000000E+00   0.00000000000000E+00  -9.62655051308253E-27
     -3.47604350231342E-27  -1.31025940153959E-26  -3.25779452214830E-16   0.00000000000000E+00   0.00000000000000E+00
      0.00000000000000E+00   0.00000000000000E+00   9.62667199120137E-27   3.47592202419449E-27   1.31025940153959E-26
      3.25779452214829E-16
      0.00000000000000E+00
      0.00000000000000E+00   0.00000000000000E+00   0.00000000000000E+00   0.00000000000000E+00   5.73586156691563E-26
      2.14351700836697E-26   7.87937857528261E-26  -3.25779451231201E-16   0.00000000000000E+00   0.00000000000000E+00
      0.00000000000000E+00   0.00000000000000E+00  -5.73585016453628E-26  -2.14352841074625E-26  -7.87937857528253E-26
      3.25779451231202E-16
      1.00000000000000E-02
     -5.00000000000000E-02  -5.00000000000000E-02   0.00000000000000E+00   0.00000000000000E+00  -1.10956844640699E-17
     -3.26548640553530E-17  -4.37505485194229E-17  -3.38276700979023E-16   0.00000000000000E+00   0.00000000000000E+00
      0.00000000000000E+00   0.00000000000000E+00   3.94622968217337E-17   4.28825169768885E-18   4.37505485194226E-17
      3.38276700979022E-16
      2.89333333333333E-02
     -1.44666666666667E-01  -1.44666666666667E-01   0.00000000000000E+00   0.00000000000000E+00  -1.26046452659452E-17
     -7.19098974198380E-17  -8.45145426857832E-17  -3.60754317385579E-16   0.00000000000000E+00   0.00000000000000E+00
      0.00000000000000E+00   0.00000000000000E+00   7.95190881818301E-17   4.99545450395351E-18   8.45145426857836E-17
      3.60754317385584E-16
      6.47804444444444E-02
     -3.23902222222222E-01  -3.23902222222222E-01   0.00000000000000E+00   0.00000000000000E+00  -1.29370484658584E-17
     -1.30253089086397E-16  -1.43190137552255E-16  -3.99865955493314E-16   0.00000000000000E+00   0.00000000000000E+00
      0.00000000000000E+00   0.00000000000000E+00   1.38027949965738E-16   5.16218758651689E-18   1.43190137552255E-16
      3.99865955493317E-16
      1.31695051851852E-01
     -6.58475259259259E-01  -6.58475259259259E-01   0.00000000000000E+00   0.00000000000000E+00  -1.36035506945408E-17
     -2.26346775920891E-16  -2.39950326615431E-16  -4.64138391426650E-16   0.00000000000000E+00   0.00000000000000E+00
      0.00000000000000E+00   0.00000000000000E+00   2.34497637737292E-16   5.45268887813569E-18   2.39950326615428E-16
      4.64138391426651E-16
      2.56602319012346E-01
     -1.28301159506173E+00  -1.28301159506173E+00   0.00000000000000E+00   0.00000000000000E+00  -1.48006374338518E-17
     -3.77012964011224E-16  -3.91813601445076E-16  -5.64874811315619E-16   0.00000000000000E+00   0.00000000000000E+00
      0.00000000000000E+00   0.00000000000000E+00   3.85833140800041E-16   5.98046064503468E-18   3.91813601445075E-16
      5.64874811315619E-16
      4.56602319012346E-01
     -2.28301159506173E+00  -2.28301159506173E+00   0.00000000000000E+00   0.00000000000000E+00  -1.67313464658536E-17
     -5.73672331644706E-16  -5.90403678110560E-16  -6.96463390810724E-16   0.00000000000000E+00   0.00000000000000E+00
      0.00000000000000E+00   0.00000000000000E+00   5.83556426624227E-16   6.84725148632972E-18   5.90403678110557E-16
      6.96463390810723E-16
      6.56602319012346E-01
     -3.28301159506173E+00  -3.28301159506173E+00   0.00000000000000E+00   0.00000000000000E+00  -1.87968170092876E-17
     -7.40249905775613E-16  -7.59046722784901E-16  -8.06869851377927E-16   0.00000000000000E+00   0.00000000000000E+00
      0.00000000000000E+00   0.00000000000000E+00   7.51249953284463E-16   7.79676950044128E-18   7.59046722784904E-16
      8.06869851377932E-16
      8.56602319012346E-01
     -4.28301159506173E+00  -4.28301159506173E+00   0.00000000000000E+00   0.00000000000000E+00  -2.10971013754671E-17
     -8.85884062876054E-16  -9.06981164251521E-16  -9.03889738526253E-16   0.00000000000000E+00   0.00000000000000E+00
      0.00000000000000E+00   0.00000000000000E+00   8.98100266861526E-16   8.88089738999418E-18   9.06981164251520E-16
      9.03889738526258E-16
      1.00000000000000E+00
     -5.00000000000000E+00  -5.00000000000000E+00   0.00000000000000E+00   0.00000000000000E+00  -2.30085516260672E-17
     -9.80874971420206E-16  -1.00388352304627E-15  -9.67481652373101E-16   0.00000000000000E+00   0.00000000000000E+00
      0.00000000000000E+00   0.00000000000000E+00   9.94110297921637E-16   9.77322512465335E-18   1.00388352304629E-15
      9.67481652373103E-16
}
