DF-ISE text

Info {
  version   = 1.0
  type      = xyplot
  datasets  = [
    "time"
    "Left OuterVoltage" "Left InnerVoltage" "Left QuasiFermiPotential" "Left DisplacementCurrent" "Left eCurrent"
    "Left hCurrent" "Left TotalCurrent" "Left Charge" "Right OuterVoltage" "Right InnerVoltage"
    "Right QuasiFermiPotential" "Right DisplacementCurrent" "Right eCurrent" "Right hCurrent" "Right TotalCurrent"
    "Right Charge" ]
  functions = [
    Time
    OuterVoltage InnerVoltage QuasiFermiPotential DisplacementCurrent eCurrent
    hCurrent TotalCurrent Charge OuterVoltage InnerVoltage
    QuasiFermiPotential DisplacementCurrent eCurrent hCurrent TotalCurrent
    Charge ]
}

Data {
      0.00000000000000E+00
      0.00000000000000E+00   0.00000000000000E+00   0.00000000000000E+00   0.00000000000000E+00   1.08630037620765E-30
      1.22732016462223E-30   2.31362054082989E-30  -2.81499289031748E-15   0.00000000000000E+00   0.00000000000000E+00
      0.00000000000000E+00   0.00000000000000E+00  -1.08629789060923E-30  -1.22732265022066E-30  -2.31362054082988E-30
      2.81499289031748E-15
      0.00000000000000E+00
      0.00000000000000E+00   0.00000000000000E+00   0.00000000000000E+00   0.00000000000000E+00  -2.07444624974501E-30
     -1.18271545664832E-30  -3.25716170639332E-30  -2.81499288564274E-15   0.00000000000000E+00   0.00000000000000E+00
      0.00000000000000E+00   0.00000000000000E+00   2.07444823085375E-30   1.18271347553960E-30   3.25716170639335E-30
      2.81499288564274E-15
      1.00000000000000E-02
     -5.00000000000000E-02  -5.00000000000000E-02   0.00000000000000E+00   0.00000000000000E+00  -1.11409152134775E-19
     -6.54289081229088E-20  -1.76838060257683E-19  -2.96909815709556E-15   0.00000000000000E+00   0.00000000000000E+00
      0.00000000000000E+00   0.00000000000000E+00   1.11577314199561E-19   6.52607460581219E-20   1.76838060257683E-19
      2.96909815709555E-15
      2.92000000000000E-02
     -1.46000000000000E-01  -1.46000000000000E-01   0.00000000000000E+00   0.00000000000000E+00  -1.28014167829281E-19
     -7.56002091020546E-20  -2.03614376931336E-19  -3.26279144436757E-15   0.00000000000000E+00   0.00000000000000E+00
      0.00000000000000E+00   0.00000000000000E+00   1.28212673560551E-19   7.54017033707838E-20   2.03614376931335E-19
      3.26279144436757E-15
      6.60640000000000E-02
     -3.30320000000000E-01  -3.30320000000000E-01   0.00000000000000E+00   0.00000000000000E+00  -1.27844745073714E-19
     -7.57877409082331E-20  -2.03632485981948E-19  -3.81587406603151E-15   0.00000000000000E+00   0.00000000000000E+00
      0.00000000000000E+00   0.00000000000000E+00   1.28055591409427E-19   7.55768945725189E-20   2.03632485981946E-19
      3.81587406603152E-15
      1.36842880000000E-01
     -6.84214400000000E-01  -6.84214400000000E-01   0.00000000000000E+00   0.00000000000000E+00  -1.13345298921956E-17
     -1.12852572513645E-17  -2.26197871435600E-17  -4.79502457972985E-15   0.00000000000000E+00   0.00000000000000E+00
      0.00000000000000E+00   0.00000000000000E+00   1.13720064261246E-17   1.12477807174354E-17   2.26197871435600E-17
      4.79502457972985E-15
      2.68963456000000E-01
     -1.34481728000000E+00  -1.34481728000000E+00   0.00000000000000E+00   0.00000000000000E+00  -5.30741742820811E-16
     -5.96047859018917E-16  -1.12678960183973E-15  -5.79782029945471E-15   0.00000000000000E+00   0.00000000000000E+00
      0.00000000000000E+00   0.00000000000000E+00   5.93091617727828E-16   5.33697984111900E-16   1.12678960183973E-15
      5.79782029945474E-15
      3.68963456000000E-01
     -1.84481728000000E+00  -1.84481728000000E+00   0.00000000000000E+00   0.00000000000000E+00  -7.73706604972613E-17
     -1.65807337923614E-16  -2.43177998420876E-16  -6.34289718275465E-15   0.00000000000000E+00   0.00000000000000E+00
      0.00000000000000E+00   0.00000000000000E+00   1.62135560722830E-16   8.10424376980465E-17   2.43177998420876E-16
      6.34289718275464E-15
      5.44963456000000E-01
     -2.72481728000000E+00  -2.72481728000000E+00   0.00000000000000E+00   0.00000000000000E+00   5.75101710018343E-17
     -1.28798613749859E-16  -7.12884427480247E-17  -7.29871528652663E-15   0.00000000000000E+00   0.00000000000000E+00
      0.00000000000000E+00   0.00000000000000E+00   1.26067665730363E-16  -5.47792229823376E-17   7.12884427480251E-17
      7.29871528652663E-15
      6.44963456000000E-01
     -3.22481728000000E+00  -3.22481728000000E+00   0.00000000000000E+00   0.00000000000000E+00  -9.10031695841480E-18
     -2.65898703799894E-16  -2.74999020758308E-16  -7.83924171734391E-15   0.00000000000000E+00   0.00000000000000E+00
      0.00000000000000E+00   0.00000000000000E+00   2.67619104828773E-16   7.37991592953662E-18   2.74999020758309E-16
      7.83924171734391E-15
      8.26296789333333E-01
     -4.13148394666667E+00  -4.13148394666667E+00   0.00000000000000E+00   0.00000000000000E+00  -2.30310395597533E-18
     -2.83990003928610E-16  -2.86293107884586E-16  -8.81065458046820E-15   0.00000000000000E+00   0.00000000000000E+00
      0.00000000000000E+00   0.00000000000000E+00   2.84167328783036E-16   2.12577910154897E-18   2.86293107884585E-16
      8.81065458046820E-15
      1.00000000000000E+00
     -5.00000000000000E+00  -5.00000000000000E+00   0.00000000000000E+00   0.00000000000000E+00  -1.99171854959716E-15
     -6.23356222290849E-15  -8.22528077250565E-15  -9.71444185006059E-15   0.00000000000000E+00   0.00000000000000E+00
      0.00000000000000E+00   0.00000000000000E+00   6.08050822916059E-15   2.14477254334504E-15   8.22528077250563E-15
      9.71444185006061E-15
}
